
     Program PWSCF v.7.2 starts on 23Oct2025 at 11:15:44 

     This program is part of the open-source Quantum ESPRESSO suite
     for quantum simulation of materials; please cite
         "P. Giannozzi et al., J. Phys.:Condens. Matter 21 395502 (2009);
         "P. Giannozzi et al., J. Phys.:Condens. Matter 29 465901 (2017);
         "P. Giannozzi et al., J. Chem. Phys. 152 154105 (2020);
          URL http://www.quantum-espresso.org", 
     in publications or presentations arising from this work. More details at
     http://www.quantum-espresso.org/quote

     Parallel version (MPI & OpenMP), running on      32 processor cores
     Number of MPI processes:                 4
     Threads/MPI process:                     8

     MPI processes distributed on     1 nodes
     502938 MiB available memory on the printing compute node when the environment starts
 
     Reading input from kpoints_60-nbnds_600.in

     Current dimensions of program PWSCF are:
     Max number of different atomic species (ntypx) = 10
     Max number of k-points (npk) =  40000
     Max angular momentum in pseudopotentials (lmaxx) =  4

     Atomic positions and unit cell read from directory:
     ./kpoints_60-nbnds_600.save/
 
Error reading attribute index: expected integer, found *
 
     R & G space division:  proc/nbgrp/npool/nimage =       4
     Subspace diagonalization in iterative solution of the eigenvalue problem:
     a serial algorithm will be used

 
     Parallelization info
     --------------------
     sticks:   dense  smooth     PW     G-vecs:    dense   smooth      PW
     Min         415     415    115                39781    39781    5795
     Max         416     416    116                39794    39794    5800
     Sum        1663    1663    463               159161   159161   23193
 
     Using Slab Decomposition
 


     bravais-lattice index     =            4
     lattice parameter (alat)  =       8.7197  a.u.
     unit-cell volume          =    1646.1513 (a.u.)^3
     number of atoms/cell      =            2
     number of atomic types    =            1
     number of electrons       =        28.00
     number of Kohn-Sham states=          600
     kinetic-energy cutoff     =      80.0000  Ry
     charge density cutoff     =     320.0000  Ry
     Exchange-correlation= PBE
                           (   1   4   3   4   0   0   0)
     Non magnetic calculation with spin-orbit


     GPU acceleration is ACTIVE.
     GPU-aware MPI enabled


     GPU used by master process:

        Device Number: 0
        Device name: NVIDIA A100-SXM-64GB
        Compute capability : 80
        Ratio of single to double precision performance  : 2
        Memory Clock Rate (KHz): 1593000
        Memory Bus Width (bits): 4096
        Peak Memory Bandwidth (GB/s): ******

     celldm(1)=   8.719660  celldm(2)=   0.000000  celldm(3)=   2.867084
     celldm(4)=   0.000000  celldm(5)=   0.000000  celldm(6)=   0.000000

     crystal axes: (cart. coord. in units of alat)
               a(1) = (   1.000000   0.000000   0.000000 )  
               a(2) = (  -0.500000   0.866025   0.000000 )  
               a(3) = (   0.000000   0.000000   2.867084 )  

     reciprocal axes: (cart. coord. in units 2 pi/alat)
               b(1) = (  1.000000  0.577350 -0.000000 )  
               b(2) = (  0.000000  1.154701  0.000000 )  
               b(3) = (  0.000000 -0.000000  0.348786 )  


     PseudoPot. # 1 for Sn read from file:
     ../pseudos/Sn_ONCV_PBE_FR-1.1.upf
     MD5 check sum: 6dd2180f739ea5ae1610ead5e1628a0e
     Pseudo is Norm-conserving, Zval = 14.0
     Generated using ONCVPSP code by D. R. Hamann
     Using radial grid of  602 points, 10 beta functions with: 
                l(1) =   0
                l(2) =   0
                l(3) =   1
                l(4) =   1
                l(5) =   1
                l(6) =   1
                l(7) =   2
                l(8) =   2
                l(9) =   2
               l(10) =   2

     atomic species   valence    mass     pseudopotential
        Sn            14.00   118.71000     Sn( 1.00)

     12 Sym. Ops., with inversion, found


                                    s                        frac. trans.

      isym =  1     identity                                     

 cryst.   s( 1) = (     1          0          0      )
                  (     0          1          0      )
                  (     0          0          1      )

 cart.    s( 1) = (  1.0000000  0.0000000  0.0000000 )
                  (  0.0000000  1.0000000  0.0000000 )
                  (  0.0000000  0.0000000  1.0000000 )


      isym =  2     180 deg rotation - cart. axis [1,0,0]        

 cryst.   s( 2) = (     1          0          0      )
                  (    -1         -1          0      )
                  (     0          0         -1      )

 cart.    s( 2) = (  1.0000000  0.0000000  0.0000000 )
                  (  0.0000000 -1.0000000  0.0000000 )
                  (  0.0000000  0.0000000 -1.0000000 )


      isym =  3     120 deg rotation - cryst. axis [0,0,1]       

 cryst.   s( 3) = (     0          1          0      )
                  (    -1         -1          0      )
                  (     0          0          1      )

 cart.    s( 3) = ( -0.5000000 -0.8660254  0.0000000 )
                  (  0.8660254 -0.5000000  0.0000000 )
                  (  0.0000000  0.0000000  1.0000000 )


      isym =  4     120 deg rotation - cryst. axis [0,0,-1]      

 cryst.   s( 4) = (    -1         -1          0      )
                  (     1          0          0      )
                  (     0          0          1      )

 cart.    s( 4) = ( -0.5000000  0.8660254  0.0000000 )
                  ( -0.8660254 -0.5000000  0.0000000 )
                  (  0.0000000  0.0000000  1.0000000 )


      isym =  5     180 deg rotation - cryst. axis [0,1,0]       

 cryst.   s( 5) = (    -1         -1          0      )
                  (     0          1          0      )
                  (     0          0         -1      )

 cart.    s( 5) = ( -0.5000000 -0.8660254  0.0000000 )
                  ( -0.8660254  0.5000000  0.0000000 )
                  (  0.0000000  0.0000000 -1.0000000 )


      isym =  6     180 deg rotation - cryst. axis [1,1,0]       

 cryst.   s( 6) = (     0          1          0      )
                  (     1          0          0      )
                  (     0          0         -1      )

 cart.    s( 6) = ( -0.5000000  0.8660254  0.0000000 )
                  (  0.8660254  0.5000000  0.0000000 )
                  (  0.0000000  0.0000000 -1.0000000 )


      isym =  7     inversion                                    

 cryst.   s( 7) = (    -1          0          0      )
                  (     0         -1          0      )
                  (     0          0         -1      )

 cart.    s( 7) = ( -1.0000000  0.0000000  0.0000000 )
                  (  0.0000000 -1.0000000  0.0000000 )
                  (  0.0000000  0.0000000 -1.0000000 )


      isym =  8     inv. 180 deg rotation - cart. axis [1,0,0]   

 cryst.   s( 8) = (    -1          0          0      )
                  (     1          1          0      )
                  (     0          0          1      )

 cart.    s( 8) = ( -1.0000000  0.0000000  0.0000000 )
                  (  0.0000000  1.0000000  0.0000000 )
                  (  0.0000000  0.0000000  1.0000000 )


      isym =  9     inv. 120 deg rotation - cryst. axis [0,0,1]  

 cryst.   s( 9) = (     0         -1          0      )
                  (     1          1          0      )
                  (     0          0         -1      )

 cart.    s( 9) = (  0.5000000  0.8660254  0.0000000 )
                  ( -0.8660254  0.5000000  0.0000000 )
                  (  0.0000000  0.0000000 -1.0000000 )


      isym = 10     inv. 120 deg rotation - cryst. axis [0,0,-1] 

 cryst.   s(10) = (     1          1          0      )
                  (    -1          0          0      )
                  (     0          0         -1      )

 cart.    s(10) = (  0.5000000 -0.8660254  0.0000000 )
                  (  0.8660254  0.5000000  0.0000000 )
                  (  0.0000000  0.0000000 -1.0000000 )


      isym = 11     inv. 180 deg rotation - cryst. axis [0,1,0]  

 cryst.   s(11) = (     1          1          0      )
                  (     0         -1          0      )
                  (     0          0          1      )

 cart.    s(11) = (  0.5000000  0.8660254  0.0000000 )
                  (  0.8660254 -0.5000000  0.0000000 )
                  (  0.0000000  0.0000000  1.0000000 )


      isym = 12     inv. 180 deg rotation - cryst. axis [1,1,0]  

 cryst.   s(12) = (     0         -1          0      )
                  (    -1          0          0      )
                  (     0          0          1      )

 cart.    s(12) = (  0.5000000 -0.8660254  0.0000000 )
                  ( -0.8660254 -0.5000000  0.0000000 )
                  (  0.0000000  0.0000000  1.0000000 )


     double point group D_3d (-3m) 
     there are 12 classes and  6 irreducible representations
     the character table:

       E     -E    2C3   -2C3  3C2'  -3C2' i     -i    2S6   -2S6  3s_v  -3s_v
                                                                              
G_4+   2.00 -2.00  1.00 -1.00  0.00  0.00  2.00 -2.00  1.00 -1.00  0.00  0.00
G_5+   1.00 -1.00 -1.00  1.00  0.00  0.00  1.00 -1.00 -1.00  1.00  0.00  0.00
G_6+   1.00 -1.00 -1.00  1.00  0.00  0.00  1.00 -1.00 -1.00  1.00  0.00  0.00
G_4-   2.00 -2.00  1.00 -1.00  0.00  0.00 -2.00  2.00 -1.00  1.00  0.00  0.00
G_5-   1.00 -1.00 -1.00  1.00  0.00  0.00 -1.00  1.00  1.00 -1.00  0.00  0.00
G_6-   1.00 -1.00 -1.00  1.00  0.00  0.00 -1.00  1.00  1.00 -1.00  0.00  0.00

     imaginary part

       E     -E    2C3   -2C3  3C2'  -3C2' i     -i    2S6   -2S6  3s_v  -3s_v
                                                                              
G_4+   0.00  0.00  0.00  0.00  0.00  0.00  0.00  0.00  0.00  0.00  0.00  0.00
G_5+   0.00  0.00  0.00  0.00  1.00 -1.00  0.00  0.00  0.00  0.00  1.00 -1.00
G_6+   0.00  0.00  0.00  0.00 -1.00  1.00  0.00  0.00  0.00  0.00 -1.00  1.00
G_4-   0.00  0.00  0.00  0.00  0.00  0.00  0.00  0.00  0.00  0.00  0.00  0.00
G_5-   0.00  0.00  0.00  0.00  1.00 -1.00  0.00  0.00  0.00  0.00 -1.00  1.00
G_6-   0.00  0.00  0.00  0.00 -1.00  1.00  0.00  0.00  0.00  0.00  1.00 -1.00

     the symmetry operations in each class and the name of the first element:

     E             1
          identity                                               
     -E           -1
          identity E                                             
     2C3           3    4
          120 deg rotation - cryst. axis [0,0,1]                 
     -2C3         -3   -4
          120 deg rotation - cryst. axis [0,0,1] E               
     3C2'          5    6   -2
          180 deg rotation - cryst. axis [0,1,0]                 
     -3C2'         2   -5   -6
          180 deg rotation - cart. axis [1,0,0]                  
     i             7
          inversion                                              
     -i           -7
          inversion E                                            
     2S6           9   10
          inv. 120 deg rotation - cryst. axis [0,0,1]            
     -2S6         -9  -10
          inv. 120 deg rotation - cryst. axis [0,0,1] E          
     3s_v         11   12   -8
          inv. 180 deg rotation - cryst. axis [0,1,0]            
     -3s_v         8  -11  -12
          inv. 180 deg rotation - cart. axis [1,0,0]             

   Cartesian axes

     site n.     atom                  positions (alat units)
         1           Sn  tau(   1) = (   0.0000000   0.5773503   0.0905140  )
         2           Sn  tau(   2) = (   0.5000000   0.2886751  -0.0905140  )

   Crystallographic axes

     site n.     atom                  positions (cryst. coord.)
         1           Sn  tau(   1) = (  0.3333333  0.6666667  0.0315701  )
         2           Sn  tau(   2) = (  0.6666667  0.3333333 -0.0315701  )

     number of k points=   331
                       cart. coord. in units 2pi/alat
        k(    1) = (   0.0000000   0.0000000   0.0000000), wk =   0.0002778
        k(    2) = (   0.0000000   0.0192450   0.0000000), wk =   0.0016667
        k(    3) = (   0.0000000   0.0384900   0.0000000), wk =   0.0016667
        k(    4) = (   0.0000000   0.0577350   0.0000000), wk =   0.0016667
        k(    5) = (   0.0000000   0.0769800   0.0000000), wk =   0.0016667
        k(    6) = (   0.0000000   0.0962250   0.0000000), wk =   0.0016667
        k(    7) = (   0.0000000   0.1154701   0.0000000), wk =   0.0016667
        k(    8) = (   0.0000000   0.1347151   0.0000000), wk =   0.0016667
        k(    9) = (   0.0000000   0.1539601   0.0000000), wk =   0.0016667
        k(   10) = (   0.0000000   0.1732051   0.0000000), wk =   0.0016667
        k(   11) = (   0.0000000   0.1924501   0.0000000), wk =   0.0016667
        k(   12) = (   0.0000000   0.2116951   0.0000000), wk =   0.0016667
        k(   13) = (   0.0000000   0.2309401   0.0000000), wk =   0.0016667
        k(   14) = (   0.0000000   0.2501851   0.0000000), wk =   0.0016667
        k(   15) = (   0.0000000   0.2694301   0.0000000), wk =   0.0016667
        k(   16) = (   0.0000000   0.2886751   0.0000000), wk =   0.0016667
        k(   17) = (   0.0000000   0.3079201   0.0000000), wk =   0.0016667
        k(   18) = (   0.0000000   0.3271652   0.0000000), wk =   0.0016667
        k(   19) = (   0.0000000   0.3464102   0.0000000), wk =   0.0016667
        k(   20) = (   0.0000000   0.3656552   0.0000000), wk =   0.0016667
        k(   21) = (   0.0000000   0.3849002   0.0000000), wk =   0.0016667
        k(   22) = (   0.0000000   0.4041452   0.0000000), wk =   0.0016667
        k(   23) = (   0.0000000   0.4233902   0.0000000), wk =   0.0016667
        k(   24) = (   0.0000000   0.4426352   0.0000000), wk =   0.0016667
        k(   25) = (   0.0000000   0.4618802   0.0000000), wk =   0.0016667
        k(   26) = (   0.0000000   0.4811252   0.0000000), wk =   0.0016667
        k(   27) = (   0.0000000   0.5003702   0.0000000), wk =   0.0016667
        k(   28) = (   0.0000000   0.5196152   0.0000000), wk =   0.0016667
        k(   29) = (   0.0000000   0.5388603   0.0000000), wk =   0.0016667
        k(   30) = (   0.0000000   0.5581053   0.0000000), wk =   0.0016667
        k(   31) = (   0.0000000  -0.5773503   0.0000000), wk =   0.0008333
        k(   32) = (   0.0166667   0.0288675   0.0000000), wk =   0.0016667
        k(   33) = (   0.0166667   0.0481125   0.0000000), wk =   0.0033333
        k(   34) = (   0.0166667   0.0673575   0.0000000), wk =   0.0033333
        k(   35) = (   0.0166667   0.0866025   0.0000000), wk =   0.0033333
        k(   36) = (   0.0166667   0.1058475   0.0000000), wk =   0.0033333
        k(   37) = (   0.0166667   0.1250926   0.0000000), wk =   0.0033333
        k(   38) = (   0.0166667   0.1443376   0.0000000), wk =   0.0033333
        k(   39) = (   0.0166667   0.1635826   0.0000000), wk =   0.0033333
        k(   40) = (   0.0166667   0.1828276   0.0000000), wk =   0.0033333
        k(   41) = (   0.0166667   0.2020726   0.0000000), wk =   0.0033333
        k(   42) = (   0.0166667   0.2213176   0.0000000), wk =   0.0033333
        k(   43) = (   0.0166667   0.2405626   0.0000000), wk =   0.0033333
        k(   44) = (   0.0166667   0.2598076   0.0000000), wk =   0.0033333
        k(   45) = (   0.0166667   0.2790526   0.0000000), wk =   0.0033333
        k(   46) = (   0.0166667   0.2982976   0.0000000), wk =   0.0033333
        k(   47) = (   0.0166667   0.3175426   0.0000000), wk =   0.0033333
        k(   48) = (   0.0166667   0.3367877   0.0000000), wk =   0.0033333
        k(   49) = (   0.0166667   0.3560327   0.0000000), wk =   0.0033333
        k(   50) = (   0.0166667   0.3752777   0.0000000), wk =   0.0033333
        k(   51) = (   0.0166667   0.3945227   0.0000000), wk =   0.0033333
        k(   52) = (   0.0166667   0.4137677   0.0000000), wk =   0.0033333
        k(   53) = (   0.0166667   0.4330127   0.0000000), wk =   0.0033333
        k(   54) = (   0.0166667   0.4522577   0.0000000), wk =   0.0033333
        k(   55) = (   0.0166667   0.4715027   0.0000000), wk =   0.0033333
        k(   56) = (   0.0166667   0.4907477   0.0000000), wk =   0.0033333
        k(   57) = (   0.0166667   0.5099927   0.0000000), wk =   0.0033333
        k(   58) = (   0.0166667   0.5292377   0.0000000), wk =   0.0033333
        k(   59) = (   0.0166667   0.5484828   0.0000000), wk =   0.0033333
        k(   60) = (   0.0166667   0.5677278   0.0000000), wk =   0.0033333
        k(   61) = (   0.0333333   0.0577350   0.0000000), wk =   0.0016667
        k(   62) = (   0.0333333   0.0769800   0.0000000), wk =   0.0033333
        k(   63) = (   0.0333333   0.0962250   0.0000000), wk =   0.0033333
        k(   64) = (   0.0333333   0.1154701   0.0000000), wk =   0.0033333
        k(   65) = (   0.0333333   0.1347151   0.0000000), wk =   0.0033333
        k(   66) = (   0.0333333   0.1539601   0.0000000), wk =   0.0033333
        k(   67) = (   0.0333333   0.1732051   0.0000000), wk =   0.0033333
        k(   68) = (   0.0333333   0.1924501   0.0000000), wk =   0.0033333
        k(   69) = (   0.0333333   0.2116951   0.0000000), wk =   0.0033333
        k(   70) = (   0.0333333   0.2309401   0.0000000), wk =   0.0033333
        k(   71) = (   0.0333333   0.2501851   0.0000000), wk =   0.0033333
        k(   72) = (   0.0333333   0.2694301   0.0000000), wk =   0.0033333
        k(   73) = (   0.0333333   0.2886751   0.0000000), wk =   0.0033333
        k(   74) = (   0.0333333   0.3079201   0.0000000), wk =   0.0033333
        k(   75) = (   0.0333333   0.3271652   0.0000000), wk =   0.0033333
        k(   76) = (   0.0333333   0.3464102   0.0000000), wk =   0.0033333
        k(   77) = (   0.0333333   0.3656552   0.0000000), wk =   0.0033333
        k(   78) = (   0.0333333   0.3849002   0.0000000), wk =   0.0033333
        k(   79) = (   0.0333333   0.4041452   0.0000000), wk =   0.0033333
        k(   80) = (   0.0333333   0.4233902   0.0000000), wk =   0.0033333
        k(   81) = (   0.0333333   0.4426352   0.0000000), wk =   0.0033333
        k(   82) = (   0.0333333   0.4618802   0.0000000), wk =   0.0033333
        k(   83) = (   0.0333333   0.4811252   0.0000000), wk =   0.0033333
        k(   84) = (   0.0333333   0.5003702   0.0000000), wk =   0.0033333
        k(   85) = (   0.0333333   0.5196152   0.0000000), wk =   0.0033333
        k(   86) = (   0.0333333   0.5388603   0.0000000), wk =   0.0033333
        k(   87) = (   0.0333333   0.5581053   0.0000000), wk =   0.0033333
        k(   88) = (   0.0333333   0.5773503   0.0000000), wk =   0.0016667
        k(   89) = (   0.0500000   0.0866025   0.0000000), wk =   0.0016667
        k(   90) = (   0.0500000   0.1058475   0.0000000), wk =   0.0033333
        k(   91) = (   0.0500000   0.1250926   0.0000000), wk =   0.0033333
        k(   92) = (   0.0500000   0.1443376   0.0000000), wk =   0.0033333
        k(   93) = (   0.0500000   0.1635826   0.0000000), wk =   0.0033333
        k(   94) = (   0.0500000   0.1828276   0.0000000), wk =   0.0033333
        k(   95) = (   0.0500000   0.2020726   0.0000000), wk =   0.0033333
        k(   96) = (   0.0500000   0.2213176   0.0000000), wk =   0.0033333
        k(   97) = (   0.0500000   0.2405626   0.0000000), wk =   0.0033333
        k(   98) = (   0.0500000   0.2598076   0.0000000), wk =   0.0033333
        k(   99) = (   0.0500000   0.2790526   0.0000000), wk =   0.0033333
        k(  100) = (   0.0500000   0.2982976   0.0000000), wk =   0.0033333
        k(  101) = (   0.0500000   0.3175426   0.0000000), wk =   0.0033333
        k(  102) = (   0.0500000   0.3367877   0.0000000), wk =   0.0033333
        k(  103) = (   0.0500000   0.3560327   0.0000000), wk =   0.0033333
        k(  104) = (   0.0500000   0.3752777   0.0000000), wk =   0.0033333
        k(  105) = (   0.0500000   0.3945227   0.0000000), wk =   0.0033333
        k(  106) = (   0.0500000   0.4137677   0.0000000), wk =   0.0033333
        k(  107) = (   0.0500000   0.4330127   0.0000000), wk =   0.0033333
        k(  108) = (   0.0500000   0.4522577   0.0000000), wk =   0.0033333
        k(  109) = (   0.0500000   0.4715027   0.0000000), wk =   0.0033333
        k(  110) = (   0.0500000   0.4907477   0.0000000), wk =   0.0033333
        k(  111) = (   0.0500000   0.5099927   0.0000000), wk =   0.0033333
        k(  112) = (   0.0500000   0.5292377   0.0000000), wk =   0.0033333
        k(  113) = (   0.0500000   0.5484828   0.0000000), wk =   0.0033333
        k(  114) = (   0.0500000   0.5677278   0.0000000), wk =   0.0033333
        k(  115) = (   0.0666667   0.1154701   0.0000000), wk =   0.0016667
        k(  116) = (   0.0666667   0.1347151   0.0000000), wk =   0.0033333
        k(  117) = (   0.0666667   0.1539601   0.0000000), wk =   0.0033333
        k(  118) = (   0.0666667   0.1732051   0.0000000), wk =   0.0033333
        k(  119) = (   0.0666667   0.1924501   0.0000000), wk =   0.0033333
        k(  120) = (   0.0666667   0.2116951   0.0000000), wk =   0.0033333
        k(  121) = (   0.0666667   0.2309401   0.0000000), wk =   0.0033333
        k(  122) = (   0.0666667   0.2501851   0.0000000), wk =   0.0033333
        k(  123) = (   0.0666667   0.2694301   0.0000000), wk =   0.0033333
        k(  124) = (   0.0666667   0.2886751   0.0000000), wk =   0.0033333
        k(  125) = (   0.0666667   0.3079201   0.0000000), wk =   0.0033333
        k(  126) = (   0.0666667   0.3271652   0.0000000), wk =   0.0033333
        k(  127) = (   0.0666667   0.3464102   0.0000000), wk =   0.0033333
        k(  128) = (   0.0666667   0.3656552   0.0000000), wk =   0.0033333
        k(  129) = (   0.0666667   0.3849002   0.0000000), wk =   0.0033333
        k(  130) = (   0.0666667   0.4041452   0.0000000), wk =   0.0033333
        k(  131) = (   0.0666667   0.4233902   0.0000000), wk =   0.0033333
        k(  132) = (   0.0666667   0.4426352   0.0000000), wk =   0.0033333
        k(  133) = (   0.0666667   0.4618802   0.0000000), wk =   0.0033333
        k(  134) = (   0.0666667   0.4811252   0.0000000), wk =   0.0033333
        k(  135) = (   0.0666667   0.5003702   0.0000000), wk =   0.0033333
        k(  136) = (   0.0666667   0.5196152   0.0000000), wk =   0.0033333
        k(  137) = (   0.0666667   0.5388603   0.0000000), wk =   0.0033333
        k(  138) = (   0.0666667   0.5581053   0.0000000), wk =   0.0033333
        k(  139) = (   0.0666667   0.5773503   0.0000000), wk =   0.0016667
        k(  140) = (   0.0833333   0.1443376   0.0000000), wk =   0.0016667
        k(  141) = (   0.0833333   0.1635826   0.0000000), wk =   0.0033333
        k(  142) = (   0.0833333   0.1828276   0.0000000), wk =   0.0033333
        k(  143) = (   0.0833333   0.2020726   0.0000000), wk =   0.0033333
        k(  144) = (   0.0833333   0.2213176   0.0000000), wk =   0.0033333
        k(  145) = (   0.0833333   0.2405626   0.0000000), wk =   0.0033333
        k(  146) = (   0.0833333   0.2598076   0.0000000), wk =   0.0033333
        k(  147) = (   0.0833333   0.2790526   0.0000000), wk =   0.0033333
        k(  148) = (   0.0833333   0.2982976   0.0000000), wk =   0.0033333
        k(  149) = (   0.0833333   0.3175426   0.0000000), wk =   0.0033333
        k(  150) = (   0.0833333   0.3367877   0.0000000), wk =   0.0033333
        k(  151) = (   0.0833333   0.3560327   0.0000000), wk =   0.0033333
        k(  152) = (   0.0833333   0.3752777   0.0000000), wk =   0.0033333
        k(  153) = (   0.0833333   0.3945227   0.0000000), wk =   0.0033333
        k(  154) = (   0.0833333   0.4137677   0.0000000), wk =   0.0033333
        k(  155) = (   0.0833333   0.4330127   0.0000000), wk =   0.0033333
        k(  156) = (   0.0833333   0.4522577   0.0000000), wk =   0.0033333
        k(  157) = (   0.0833333   0.4715027   0.0000000), wk =   0.0033333
        k(  158) = (   0.0833333   0.4907477   0.0000000), wk =   0.0033333
        k(  159) = (   0.0833333   0.5099927   0.0000000), wk =   0.0033333
        k(  160) = (   0.0833333   0.5292377   0.0000000), wk =   0.0033333
        k(  161) = (   0.0833333   0.5484828   0.0000000), wk =   0.0033333
        k(  162) = (   0.0833333   0.5677278   0.0000000), wk =   0.0033333
        k(  163) = (   0.1000000   0.1732051   0.0000000), wk =   0.0016667
        k(  164) = (   0.1000000   0.1924501   0.0000000), wk =   0.0033333
        k(  165) = (   0.1000000   0.2116951   0.0000000), wk =   0.0033333
        k(  166) = (   0.1000000   0.2309401   0.0000000), wk =   0.0033333
        k(  167) = (   0.1000000   0.2501851   0.0000000), wk =   0.0033333
        k(  168) = (   0.1000000   0.2694301   0.0000000), wk =   0.0033333
        k(  169) = (   0.1000000   0.2886751   0.0000000), wk =   0.0033333
        k(  170) = (   0.1000000   0.3079201   0.0000000), wk =   0.0033333
        k(  171) = (   0.1000000   0.3271652   0.0000000), wk =   0.0033333
        k(  172) = (   0.1000000   0.3464102   0.0000000), wk =   0.0033333
        k(  173) = (   0.1000000   0.3656552   0.0000000), wk =   0.0033333
        k(  174) = (   0.1000000   0.3849002   0.0000000), wk =   0.0033333
        k(  175) = (   0.1000000   0.4041452   0.0000000), wk =   0.0033333
        k(  176) = (   0.1000000   0.4233902   0.0000000), wk =   0.0033333
        k(  177) = (   0.1000000   0.4426352   0.0000000), wk =   0.0033333
        k(  178) = (   0.1000000   0.4618802   0.0000000), wk =   0.0033333
        k(  179) = (   0.1000000   0.4811252   0.0000000), wk =   0.0033333
        k(  180) = (   0.1000000   0.5003702   0.0000000), wk =   0.0033333
        k(  181) = (   0.1000000   0.5196152   0.0000000), wk =   0.0033333
        k(  182) = (   0.1000000   0.5388603   0.0000000), wk =   0.0033333
        k(  183) = (   0.1000000   0.5581053   0.0000000), wk =   0.0033333
        k(  184) = (   0.1000000   0.5773503   0.0000000), wk =   0.0016667
        k(  185) = (   0.1166667   0.2020726   0.0000000), wk =   0.0016667
        k(  186) = (   0.1166667   0.2213176   0.0000000), wk =   0.0033333
        k(  187) = (   0.1166667   0.2405626   0.0000000), wk =   0.0033333
        k(  188) = (   0.1166667   0.2598076   0.0000000), wk =   0.0033333
        k(  189) = (   0.1166667   0.2790526   0.0000000), wk =   0.0033333
        k(  190) = (   0.1166667   0.2982976   0.0000000), wk =   0.0033333
        k(  191) = (   0.1166667   0.3175426   0.0000000), wk =   0.0033333
        k(  192) = (   0.1166667   0.3367877   0.0000000), wk =   0.0033333
        k(  193) = (   0.1166667   0.3560327   0.0000000), wk =   0.0033333
        k(  194) = (   0.1166667   0.3752777   0.0000000), wk =   0.0033333
        k(  195) = (   0.1166667   0.3945227   0.0000000), wk =   0.0033333
        k(  196) = (   0.1166667   0.4137677   0.0000000), wk =   0.0033333
        k(  197) = (   0.1166667   0.4330127   0.0000000), wk =   0.0033333
        k(  198) = (   0.1166667   0.4522577   0.0000000), wk =   0.0033333
        k(  199) = (   0.1166667   0.4715027   0.0000000), wk =   0.0033333
        k(  200) = (   0.1166667   0.4907477   0.0000000), wk =   0.0033333
        k(  201) = (   0.1166667   0.5099927   0.0000000), wk =   0.0033333
        k(  202) = (   0.1166667   0.5292377   0.0000000), wk =   0.0033333
        k(  203) = (   0.1166667   0.5484828   0.0000000), wk =   0.0033333
        k(  204) = (   0.1166667   0.5677278   0.0000000), wk =   0.0033333
        k(  205) = (   0.1333333   0.2309401   0.0000000), wk =   0.0016667
        k(  206) = (   0.1333333   0.2501851   0.0000000), wk =   0.0033333
        k(  207) = (   0.1333333   0.2694301   0.0000000), wk =   0.0033333
        k(  208) = (   0.1333333   0.2886751   0.0000000), wk =   0.0033333
        k(  209) = (   0.1333333   0.3079201   0.0000000), wk =   0.0033333
        k(  210) = (   0.1333333   0.3271652   0.0000000), wk =   0.0033333
        k(  211) = (   0.1333333   0.3464102   0.0000000), wk =   0.0033333
        k(  212) = (   0.1333333   0.3656552   0.0000000), wk =   0.0033333
        k(  213) = (   0.1333333   0.3849002   0.0000000), wk =   0.0033333
        k(  214) = (   0.1333333   0.4041452   0.0000000), wk =   0.0033333
        k(  215) = (   0.1333333   0.4233902   0.0000000), wk =   0.0033333
        k(  216) = (   0.1333333   0.4426352   0.0000000), wk =   0.0033333
        k(  217) = (   0.1333333   0.4618802   0.0000000), wk =   0.0033333
        k(  218) = (   0.1333333   0.4811252   0.0000000), wk =   0.0033333
        k(  219) = (   0.1333333   0.5003702   0.0000000), wk =   0.0033333
        k(  220) = (   0.1333333   0.5196152   0.0000000), wk =   0.0033333
        k(  221) = (   0.1333333   0.5388603   0.0000000), wk =   0.0033333
        k(  222) = (   0.1333333   0.5581053   0.0000000), wk =   0.0033333
        k(  223) = (   0.1333333   0.5773503   0.0000000), wk =   0.0016667
        k(  224) = (   0.1500000   0.2598076   0.0000000), wk =   0.0016667
        k(  225) = (   0.1500000   0.2790526   0.0000000), wk =   0.0033333
        k(  226) = (   0.1500000   0.2982976   0.0000000), wk =   0.0033333
        k(  227) = (   0.1500000   0.3175426   0.0000000), wk =   0.0033333
        k(  228) = (   0.1500000   0.3367877   0.0000000), wk =   0.0033333
        k(  229) = (   0.1500000   0.3560327   0.0000000), wk =   0.0033333
        k(  230) = (   0.1500000   0.3752777   0.0000000), wk =   0.0033333
        k(  231) = (   0.1500000   0.3945227   0.0000000), wk =   0.0033333
        k(  232) = (   0.1500000   0.4137677   0.0000000), wk =   0.0033333
        k(  233) = (   0.1500000   0.4330127   0.0000000), wk =   0.0033333
        k(  234) = (   0.1500000   0.4522577   0.0000000), wk =   0.0033333
        k(  235) = (   0.1500000   0.4715027   0.0000000), wk =   0.0033333
        k(  236) = (   0.1500000   0.4907477   0.0000000), wk =   0.0033333
        k(  237) = (   0.1500000   0.5099927   0.0000000), wk =   0.0033333
        k(  238) = (   0.1500000   0.5292377   0.0000000), wk =   0.0033333
        k(  239) = (   0.1500000   0.5484828   0.0000000), wk =   0.0033333
        k(  240) = (   0.1500000   0.5677278   0.0000000), wk =   0.0033333
        k(  241) = (   0.1666667   0.2886751   0.0000000), wk =   0.0016667
        k(  242) = (   0.1666667   0.3079201   0.0000000), wk =   0.0033333
        k(  243) = (   0.1666667   0.3271652   0.0000000), wk =   0.0033333
        k(  244) = (   0.1666667   0.3464102   0.0000000), wk =   0.0033333
        k(  245) = (   0.1666667   0.3656552   0.0000000), wk =   0.0033333
        k(  246) = (   0.1666667   0.3849002   0.0000000), wk =   0.0033333
        k(  247) = (   0.1666667   0.4041452   0.0000000), wk =   0.0033333
        k(  248) = (   0.1666667   0.4233902   0.0000000), wk =   0.0033333
        k(  249) = (   0.1666667   0.4426352   0.0000000), wk =   0.0033333
        k(  250) = (   0.1666667   0.4618802   0.0000000), wk =   0.0033333
        k(  251) = (   0.1666667   0.4811252   0.0000000), wk =   0.0033333
        k(  252) = (   0.1666667   0.5003702   0.0000000), wk =   0.0033333
        k(  253) = (   0.1666667   0.5196152   0.0000000), wk =   0.0033333
        k(  254) = (   0.1666667   0.5388603   0.0000000), wk =   0.0033333
        k(  255) = (   0.1666667   0.5581053   0.0000000), wk =   0.0033333
        k(  256) = (   0.1666667   0.5773503   0.0000000), wk =   0.0016667
        k(  257) = (   0.1833333   0.3175426   0.0000000), wk =   0.0016667
        k(  258) = (   0.1833333   0.3367877   0.0000000), wk =   0.0033333
        k(  259) = (   0.1833333   0.3560327   0.0000000), wk =   0.0033333
        k(  260) = (   0.1833333   0.3752777   0.0000000), wk =   0.0033333
        k(  261) = (   0.1833333   0.3945227   0.0000000), wk =   0.0033333
        k(  262) = (   0.1833333   0.4137677   0.0000000), wk =   0.0033333
        k(  263) = (   0.1833333   0.4330127   0.0000000), wk =   0.0033333
        k(  264) = (   0.1833333   0.4522577   0.0000000), wk =   0.0033333
        k(  265) = (   0.1833333   0.4715027   0.0000000), wk =   0.0033333
        k(  266) = (   0.1833333   0.4907477   0.0000000), wk =   0.0033333
        k(  267) = (   0.1833333   0.5099927   0.0000000), wk =   0.0033333
        k(  268) = (   0.1833333   0.5292377   0.0000000), wk =   0.0033333
        k(  269) = (   0.1833333   0.5484828   0.0000000), wk =   0.0033333
        k(  270) = (   0.1833333   0.5677278   0.0000000), wk =   0.0033333
        k(  271) = (   0.2000000   0.3464102   0.0000000), wk =   0.0016667
        k(  272) = (   0.2000000   0.3656552   0.0000000), wk =   0.0033333
        k(  273) = (   0.2000000   0.3849002   0.0000000), wk =   0.0033333
        k(  274) = (   0.2000000   0.4041452   0.0000000), wk =   0.0033333
        k(  275) = (   0.2000000   0.4233902   0.0000000), wk =   0.0033333
        k(  276) = (   0.2000000   0.4426352   0.0000000), wk =   0.0033333
        k(  277) = (   0.2000000   0.4618802   0.0000000), wk =   0.0033333
        k(  278) = (   0.2000000   0.4811252   0.0000000), wk =   0.0033333
        k(  279) = (   0.2000000   0.5003702   0.0000000), wk =   0.0033333
        k(  280) = (   0.2000000   0.5196152   0.0000000), wk =   0.0033333
        k(  281) = (   0.2000000   0.5388603   0.0000000), wk =   0.0033333
        k(  282) = (   0.2000000   0.5581053   0.0000000), wk =   0.0033333
        k(  283) = (   0.2000000   0.5773503   0.0000000), wk =   0.0016667
        k(  284) = (   0.2166667   0.3752777   0.0000000), wk =   0.0016667
        k(  285) = (   0.2166667   0.3945227   0.0000000), wk =   0.0033333
        k(  286) = (   0.2166667   0.4137677   0.0000000), wk =   0.0033333
        k(  287) = (   0.2166667   0.4330127   0.0000000), wk =   0.0033333
        k(  288) = (   0.2166667   0.4522577   0.0000000), wk =   0.0033333
        k(  289) = (   0.2166667   0.4715027   0.0000000), wk =   0.0033333
        k(  290) = (   0.2166667   0.4907477   0.0000000), wk =   0.0033333
        k(  291) = (   0.2166667   0.5099927   0.0000000), wk =   0.0033333
        k(  292) = (   0.2166667   0.5292377   0.0000000), wk =   0.0033333
        k(  293) = (   0.2166667   0.5484828   0.0000000), wk =   0.0033333
        k(  294) = (   0.2166667   0.5677278   0.0000000), wk =   0.0033333
        k(  295) = (   0.2333333   0.4041452   0.0000000), wk =   0.0016667
        k(  296) = (   0.2333333   0.4233902   0.0000000), wk =   0.0033333
        k(  297) = (   0.2333333   0.4426352   0.0000000), wk =   0.0033333
        k(  298) = (   0.2333333   0.4618802   0.0000000), wk =   0.0033333
        k(  299) = (   0.2333333   0.4811252   0.0000000), wk =   0.0033333
        k(  300) = (   0.2333333   0.5003702   0.0000000), wk =   0.0033333
        k(  301) = (   0.2333333   0.5196152   0.0000000), wk =   0.0033333
        k(  302) = (   0.2333333   0.5388603   0.0000000), wk =   0.0033333
        k(  303) = (   0.2333333   0.5581053   0.0000000), wk =   0.0033333
        k(  304) = (   0.2333333   0.5773503   0.0000000), wk =   0.0016667
        k(  305) = (   0.2500000   0.4330127   0.0000000), wk =   0.0016667
        k(  306) = (   0.2500000   0.4522577   0.0000000), wk =   0.0033333
        k(  307) = (   0.2500000   0.4715027   0.0000000), wk =   0.0033333
        k(  308) = (   0.2500000   0.4907477   0.0000000), wk =   0.0033333
        k(  309) = (   0.2500000   0.5099927   0.0000000), wk =   0.0033333
        k(  310) = (   0.2500000   0.5292377   0.0000000), wk =   0.0033333
        k(  311) = (   0.2500000   0.5484828   0.0000000), wk =   0.0033333
        k(  312) = (   0.2500000   0.5677278   0.0000000), wk =   0.0033333
        k(  313) = (   0.2666667   0.4618802   0.0000000), wk =   0.0016667
        k(  314) = (   0.2666667   0.4811252   0.0000000), wk =   0.0033333
        k(  315) = (   0.2666667   0.5003702   0.0000000), wk =   0.0033333
        k(  316) = (   0.2666667   0.5196152   0.0000000), wk =   0.0033333
        k(  317) = (   0.2666667   0.5388603   0.0000000), wk =   0.0033333
        k(  318) = (   0.2666667   0.5581053   0.0000000), wk =   0.0033333
        k(  319) = (   0.2666667   0.5773503   0.0000000), wk =   0.0016667
        k(  320) = (   0.2833333   0.4907477   0.0000000), wk =   0.0016667
        k(  321) = (   0.2833333   0.5099927   0.0000000), wk =   0.0033333
        k(  322) = (   0.2833333   0.5292377   0.0000000), wk =   0.0033333
        k(  323) = (   0.2833333   0.5484828   0.0000000), wk =   0.0033333
        k(  324) = (   0.2833333   0.5677278   0.0000000), wk =   0.0033333
        k(  325) = (   0.3000000   0.5196152   0.0000000), wk =   0.0016667
        k(  326) = (   0.3000000   0.5388603   0.0000000), wk =   0.0033333
        k(  327) = (   0.3000000   0.5581053   0.0000000), wk =   0.0033333
        k(  328) = (   0.3000000   0.5773503   0.0000000), wk =   0.0016667
        k(  329) = (   0.3166667   0.5484828   0.0000000), wk =   0.0016667
        k(  330) = (   0.3166667   0.5677278   0.0000000), wk =   0.0033333
        k(  331) = (   0.3333333   0.5773503   0.0000000), wk =   0.0005556

                       cryst. coord.
        k(    1) = (   0.0000000   0.0000000   0.0000000), wk =   0.0002778
        k(    2) = (   0.0000000   0.0166667   0.0000000), wk =   0.0016667
        k(    3) = (   0.0000000   0.0333333   0.0000000), wk =   0.0016667
        k(    4) = (   0.0000000   0.0500000   0.0000000), wk =   0.0016667
        k(    5) = (   0.0000000   0.0666667   0.0000000), wk =   0.0016667
        k(    6) = (   0.0000000   0.0833333   0.0000000), wk =   0.0016667
        k(    7) = (   0.0000000   0.1000000   0.0000000), wk =   0.0016667
        k(    8) = (   0.0000000   0.1166667   0.0000000), wk =   0.0016667
        k(    9) = (   0.0000000   0.1333333   0.0000000), wk =   0.0016667
        k(   10) = (   0.0000000   0.1500000   0.0000000), wk =   0.0016667
        k(   11) = (   0.0000000   0.1666667   0.0000000), wk =   0.0016667
        k(   12) = (   0.0000000   0.1833333   0.0000000), wk =   0.0016667
        k(   13) = (   0.0000000   0.2000000   0.0000000), wk =   0.0016667
        k(   14) = (   0.0000000   0.2166667   0.0000000), wk =   0.0016667
        k(   15) = (   0.0000000   0.2333333   0.0000000), wk =   0.0016667
        k(   16) = (   0.0000000   0.2500000   0.0000000), wk =   0.0016667
        k(   17) = (   0.0000000   0.2666667   0.0000000), wk =   0.0016667
        k(   18) = (   0.0000000   0.2833333   0.0000000), wk =   0.0016667
        k(   19) = (   0.0000000   0.3000000   0.0000000), wk =   0.0016667
        k(   20) = (   0.0000000   0.3166667   0.0000000), wk =   0.0016667
        k(   21) = (   0.0000000   0.3333333   0.0000000), wk =   0.0016667
        k(   22) = (   0.0000000   0.3500000   0.0000000), wk =   0.0016667
        k(   23) = (   0.0000000   0.3666667   0.0000000), wk =   0.0016667
        k(   24) = (   0.0000000   0.3833333   0.0000000), wk =   0.0016667
        k(   25) = (   0.0000000   0.4000000   0.0000000), wk =   0.0016667
        k(   26) = (   0.0000000   0.4166667   0.0000000), wk =   0.0016667
        k(   27) = (   0.0000000   0.4333333   0.0000000), wk =   0.0016667
        k(   28) = (   0.0000000   0.4500000   0.0000000), wk =   0.0016667
        k(   29) = (   0.0000000   0.4666667   0.0000000), wk =   0.0016667
        k(   30) = (   0.0000000   0.4833333   0.0000000), wk =   0.0016667
        k(   31) = (   0.0000000  -0.5000000   0.0000000), wk =   0.0008333
        k(   32) = (   0.0166667   0.0166667   0.0000000), wk =   0.0016667
        k(   33) = (   0.0166667   0.0333333   0.0000000), wk =   0.0033333
        k(   34) = (   0.0166667   0.0500000   0.0000000), wk =   0.0033333
        k(   35) = (   0.0166667   0.0666667   0.0000000), wk =   0.0033333
        k(   36) = (   0.0166667   0.0833333   0.0000000), wk =   0.0033333
        k(   37) = (   0.0166667   0.1000000   0.0000000), wk =   0.0033333
        k(   38) = (   0.0166667   0.1166667   0.0000000), wk =   0.0033333
        k(   39) = (   0.0166667   0.1333333   0.0000000), wk =   0.0033333
        k(   40) = (   0.0166667   0.1500000   0.0000000), wk =   0.0033333
        k(   41) = (   0.0166667   0.1666667   0.0000000), wk =   0.0033333
        k(   42) = (   0.0166667   0.1833333   0.0000000), wk =   0.0033333
        k(   43) = (   0.0166667   0.2000000   0.0000000), wk =   0.0033333
        k(   44) = (   0.0166667   0.2166667   0.0000000), wk =   0.0033333
        k(   45) = (   0.0166667   0.2333333   0.0000000), wk =   0.0033333
        k(   46) = (   0.0166667   0.2500000   0.0000000), wk =   0.0033333
        k(   47) = (   0.0166667   0.2666667   0.0000000), wk =   0.0033333
        k(   48) = (   0.0166667   0.2833333   0.0000000), wk =   0.0033333
        k(   49) = (   0.0166667   0.3000000   0.0000000), wk =   0.0033333
        k(   50) = (   0.0166667   0.3166667   0.0000000), wk =   0.0033333
        k(   51) = (   0.0166667   0.3333333   0.0000000), wk =   0.0033333
        k(   52) = (   0.0166667   0.3500000   0.0000000), wk =   0.0033333
        k(   53) = (   0.0166667   0.3666667   0.0000000), wk =   0.0033333
        k(   54) = (   0.0166667   0.3833333   0.0000000), wk =   0.0033333
        k(   55) = (   0.0166667   0.4000000   0.0000000), wk =   0.0033333
        k(   56) = (   0.0166667   0.4166667   0.0000000), wk =   0.0033333
        k(   57) = (   0.0166667   0.4333333   0.0000000), wk =   0.0033333
        k(   58) = (   0.0166667   0.4500000   0.0000000), wk =   0.0033333
        k(   59) = (   0.0166667   0.4666667   0.0000000), wk =   0.0033333
        k(   60) = (   0.0166667   0.4833333   0.0000000), wk =   0.0033333
        k(   61) = (   0.0333333   0.0333333   0.0000000), wk =   0.0016667
        k(   62) = (   0.0333333   0.0500000   0.0000000), wk =   0.0033333
        k(   63) = (   0.0333333   0.0666667   0.0000000), wk =   0.0033333
        k(   64) = (   0.0333333   0.0833333   0.0000000), wk =   0.0033333
        k(   65) = (   0.0333333   0.1000000   0.0000000), wk =   0.0033333
        k(   66) = (   0.0333333   0.1166667   0.0000000), wk =   0.0033333
        k(   67) = (   0.0333333   0.1333333   0.0000000), wk =   0.0033333
        k(   68) = (   0.0333333   0.1500000   0.0000000), wk =   0.0033333
        k(   69) = (   0.0333333   0.1666667   0.0000000), wk =   0.0033333
        k(   70) = (   0.0333333   0.1833333   0.0000000), wk =   0.0033333
        k(   71) = (   0.0333333   0.2000000   0.0000000), wk =   0.0033333
        k(   72) = (   0.0333333   0.2166667   0.0000000), wk =   0.0033333
        k(   73) = (   0.0333333   0.2333333   0.0000000), wk =   0.0033333
        k(   74) = (   0.0333333   0.2500000   0.0000000), wk =   0.0033333
        k(   75) = (   0.0333333   0.2666667   0.0000000), wk =   0.0033333
        k(   76) = (   0.0333333   0.2833333   0.0000000), wk =   0.0033333
        k(   77) = (   0.0333333   0.3000000   0.0000000), wk =   0.0033333
        k(   78) = (   0.0333333   0.3166667   0.0000000), wk =   0.0033333
        k(   79) = (   0.0333333   0.3333333   0.0000000), wk =   0.0033333
        k(   80) = (   0.0333333   0.3500000   0.0000000), wk =   0.0033333
        k(   81) = (   0.0333333   0.3666667   0.0000000), wk =   0.0033333
        k(   82) = (   0.0333333   0.3833333   0.0000000), wk =   0.0033333
        k(   83) = (   0.0333333   0.4000000   0.0000000), wk =   0.0033333
        k(   84) = (   0.0333333   0.4166667   0.0000000), wk =   0.0033333
        k(   85) = (   0.0333333   0.4333333   0.0000000), wk =   0.0033333
        k(   86) = (   0.0333333   0.4500000   0.0000000), wk =   0.0033333
        k(   87) = (   0.0333333   0.4666667   0.0000000), wk =   0.0033333
        k(   88) = (   0.0333333   0.4833333   0.0000000), wk =   0.0016667
        k(   89) = (   0.0500000   0.0500000   0.0000000), wk =   0.0016667
        k(   90) = (   0.0500000   0.0666667   0.0000000), wk =   0.0033333
        k(   91) = (   0.0500000   0.0833333   0.0000000), wk =   0.0033333
        k(   92) = (   0.0500000   0.1000000   0.0000000), wk =   0.0033333
        k(   93) = (   0.0500000   0.1166667   0.0000000), wk =   0.0033333
        k(   94) = (   0.0500000   0.1333333   0.0000000), wk =   0.0033333
        k(   95) = (   0.0500000   0.1500000   0.0000000), wk =   0.0033333
        k(   96) = (   0.0500000   0.1666667   0.0000000), wk =   0.0033333
        k(   97) = (   0.0500000   0.1833333   0.0000000), wk =   0.0033333
        k(   98) = (   0.0500000   0.2000000   0.0000000), wk =   0.0033333
        k(   99) = (   0.0500000   0.2166667   0.0000000), wk =   0.0033333
        k(  100) = (   0.0500000   0.2333333   0.0000000), wk =   0.0033333
        k(  101) = (   0.0500000   0.2500000   0.0000000), wk =   0.0033333
        k(  102) = (   0.0500000   0.2666667   0.0000000), wk =   0.0033333
        k(  103) = (   0.0500000   0.2833333   0.0000000), wk =   0.0033333
        k(  104) = (   0.0500000   0.3000000   0.0000000), wk =   0.0033333
        k(  105) = (   0.0500000   0.3166667   0.0000000), wk =   0.0033333
        k(  106) = (   0.0500000   0.3333333   0.0000000), wk =   0.0033333
        k(  107) = (   0.0500000   0.3500000   0.0000000), wk =   0.0033333
        k(  108) = (   0.0500000   0.3666667   0.0000000), wk =   0.0033333
        k(  109) = (   0.0500000   0.3833333   0.0000000), wk =   0.0033333
        k(  110) = (   0.0500000   0.4000000   0.0000000), wk =   0.0033333
        k(  111) = (   0.0500000   0.4166667   0.0000000), wk =   0.0033333
        k(  112) = (   0.0500000   0.4333333   0.0000000), wk =   0.0033333
        k(  113) = (   0.0500000   0.4500000   0.0000000), wk =   0.0033333
        k(  114) = (   0.0500000   0.4666667   0.0000000), wk =   0.0033333
        k(  115) = (   0.0666667   0.0666667   0.0000000), wk =   0.0016667
        k(  116) = (   0.0666667   0.0833333   0.0000000), wk =   0.0033333
        k(  117) = (   0.0666667   0.1000000   0.0000000), wk =   0.0033333
        k(  118) = (   0.0666667   0.1166667   0.0000000), wk =   0.0033333
        k(  119) = (   0.0666667   0.1333333   0.0000000), wk =   0.0033333
        k(  120) = (   0.0666667   0.1500000   0.0000000), wk =   0.0033333
        k(  121) = (   0.0666667   0.1666667   0.0000000), wk =   0.0033333
        k(  122) = (   0.0666667   0.1833333   0.0000000), wk =   0.0033333
        k(  123) = (   0.0666667   0.2000000   0.0000000), wk =   0.0033333
        k(  124) = (   0.0666667   0.2166667   0.0000000), wk =   0.0033333
        k(  125) = (   0.0666667   0.2333333   0.0000000), wk =   0.0033333
        k(  126) = (   0.0666667   0.2500000   0.0000000), wk =   0.0033333
        k(  127) = (   0.0666667   0.2666667   0.0000000), wk =   0.0033333
        k(  128) = (   0.0666667   0.2833333   0.0000000), wk =   0.0033333
        k(  129) = (   0.0666667   0.3000000   0.0000000), wk =   0.0033333
        k(  130) = (   0.0666667   0.3166667   0.0000000), wk =   0.0033333
        k(  131) = (   0.0666667   0.3333333   0.0000000), wk =   0.0033333
        k(  132) = (   0.0666667   0.3500000   0.0000000), wk =   0.0033333
        k(  133) = (   0.0666667   0.3666667   0.0000000), wk =   0.0033333
        k(  134) = (   0.0666667   0.3833333   0.0000000), wk =   0.0033333
        k(  135) = (   0.0666667   0.4000000   0.0000000), wk =   0.0033333
        k(  136) = (   0.0666667   0.4166667   0.0000000), wk =   0.0033333
        k(  137) = (   0.0666667   0.4333333   0.0000000), wk =   0.0033333
        k(  138) = (   0.0666667   0.4500000   0.0000000), wk =   0.0033333
        k(  139) = (   0.0666667   0.4666667   0.0000000), wk =   0.0016667
        k(  140) = (   0.0833333   0.0833333   0.0000000), wk =   0.0016667
        k(  141) = (   0.0833333   0.1000000   0.0000000), wk =   0.0033333
        k(  142) = (   0.0833333   0.1166667   0.0000000), wk =   0.0033333
        k(  143) = (   0.0833333   0.1333333   0.0000000), wk =   0.0033333
        k(  144) = (   0.0833333   0.1500000   0.0000000), wk =   0.0033333
        k(  145) = (   0.0833333   0.1666667   0.0000000), wk =   0.0033333
        k(  146) = (   0.0833333   0.1833333   0.0000000), wk =   0.0033333
        k(  147) = (   0.0833333   0.2000000   0.0000000), wk =   0.0033333
        k(  148) = (   0.0833333   0.2166667   0.0000000), wk =   0.0033333
        k(  149) = (   0.0833333   0.2333333   0.0000000), wk =   0.0033333
        k(  150) = (   0.0833333   0.2500000   0.0000000), wk =   0.0033333
        k(  151) = (   0.0833333   0.2666667   0.0000000), wk =   0.0033333
        k(  152) = (   0.0833333   0.2833333   0.0000000), wk =   0.0033333
        k(  153) = (   0.0833333   0.3000000   0.0000000), wk =   0.0033333
        k(  154) = (   0.0833333   0.3166667   0.0000000), wk =   0.0033333
        k(  155) = (   0.0833333   0.3333333   0.0000000), wk =   0.0033333
        k(  156) = (   0.0833333   0.3500000   0.0000000), wk =   0.0033333
        k(  157) = (   0.0833333   0.3666667   0.0000000), wk =   0.0033333
        k(  158) = (   0.0833333   0.3833333   0.0000000), wk =   0.0033333
        k(  159) = (   0.0833333   0.4000000   0.0000000), wk =   0.0033333
        k(  160) = (   0.0833333   0.4166667   0.0000000), wk =   0.0033333
        k(  161) = (   0.0833333   0.4333333   0.0000000), wk =   0.0033333
        k(  162) = (   0.0833333   0.4500000   0.0000000), wk =   0.0033333
        k(  163) = (   0.1000000   0.1000000   0.0000000), wk =   0.0016667
        k(  164) = (   0.1000000   0.1166667   0.0000000), wk =   0.0033333
        k(  165) = (   0.1000000   0.1333333   0.0000000), wk =   0.0033333
        k(  166) = (   0.1000000   0.1500000   0.0000000), wk =   0.0033333
        k(  167) = (   0.1000000   0.1666667   0.0000000), wk =   0.0033333
        k(  168) = (   0.1000000   0.1833333   0.0000000), wk =   0.0033333
        k(  169) = (   0.1000000   0.2000000   0.0000000), wk =   0.0033333
        k(  170) = (   0.1000000   0.2166667   0.0000000), wk =   0.0033333
        k(  171) = (   0.1000000   0.2333333   0.0000000), wk =   0.0033333
        k(  172) = (   0.1000000   0.2500000   0.0000000), wk =   0.0033333
        k(  173) = (   0.1000000   0.2666667   0.0000000), wk =   0.0033333
        k(  174) = (   0.1000000   0.2833333   0.0000000), wk =   0.0033333
        k(  175) = (   0.1000000   0.3000000   0.0000000), wk =   0.0033333
        k(  176) = (   0.1000000   0.3166667   0.0000000), wk =   0.0033333
        k(  177) = (   0.1000000   0.3333333   0.0000000), wk =   0.0033333
        k(  178) = (   0.1000000   0.3500000   0.0000000), wk =   0.0033333
        k(  179) = (   0.1000000   0.3666667   0.0000000), wk =   0.0033333
        k(  180) = (   0.1000000   0.3833333   0.0000000), wk =   0.0033333
        k(  181) = (   0.1000000   0.4000000   0.0000000), wk =   0.0033333
        k(  182) = (   0.1000000   0.4166667   0.0000000), wk =   0.0033333
        k(  183) = (   0.1000000   0.4333333   0.0000000), wk =   0.0033333
        k(  184) = (   0.1000000   0.4500000   0.0000000), wk =   0.0016667
        k(  185) = (   0.1166667   0.1166667   0.0000000), wk =   0.0016667
        k(  186) = (   0.1166667   0.1333333   0.0000000), wk =   0.0033333
        k(  187) = (   0.1166667   0.1500000   0.0000000), wk =   0.0033333
        k(  188) = (   0.1166667   0.1666667   0.0000000), wk =   0.0033333
        k(  189) = (   0.1166667   0.1833333   0.0000000), wk =   0.0033333
        k(  190) = (   0.1166667   0.2000000   0.0000000), wk =   0.0033333
        k(  191) = (   0.1166667   0.2166667   0.0000000), wk =   0.0033333
        k(  192) = (   0.1166667   0.2333333   0.0000000), wk =   0.0033333
        k(  193) = (   0.1166667   0.2500000   0.0000000), wk =   0.0033333
        k(  194) = (   0.1166667   0.2666667   0.0000000), wk =   0.0033333
        k(  195) = (   0.1166667   0.2833333   0.0000000), wk =   0.0033333
        k(  196) = (   0.1166667   0.3000000   0.0000000), wk =   0.0033333
        k(  197) = (   0.1166667   0.3166667   0.0000000), wk =   0.0033333
        k(  198) = (   0.1166667   0.3333333   0.0000000), wk =   0.0033333
        k(  199) = (   0.1166667   0.3500000   0.0000000), wk =   0.0033333
        k(  200) = (   0.1166667   0.3666667   0.0000000), wk =   0.0033333
        k(  201) = (   0.1166667   0.3833333   0.0000000), wk =   0.0033333
        k(  202) = (   0.1166667   0.4000000   0.0000000), wk =   0.0033333
        k(  203) = (   0.1166667   0.4166667   0.0000000), wk =   0.0033333
        k(  204) = (   0.1166667   0.4333333   0.0000000), wk =   0.0033333
        k(  205) = (   0.1333333   0.1333333   0.0000000), wk =   0.0016667
        k(  206) = (   0.1333333   0.1500000   0.0000000), wk =   0.0033333
        k(  207) = (   0.1333333   0.1666667   0.0000000), wk =   0.0033333
        k(  208) = (   0.1333333   0.1833333   0.0000000), wk =   0.0033333
        k(  209) = (   0.1333333   0.2000000   0.0000000), wk =   0.0033333
        k(  210) = (   0.1333333   0.2166667   0.0000000), wk =   0.0033333
        k(  211) = (   0.1333333   0.2333333   0.0000000), wk =   0.0033333
        k(  212) = (   0.1333333   0.2500000   0.0000000), wk =   0.0033333
        k(  213) = (   0.1333333   0.2666667   0.0000000), wk =   0.0033333
        k(  214) = (   0.1333333   0.2833333   0.0000000), wk =   0.0033333
        k(  215) = (   0.1333333   0.3000000   0.0000000), wk =   0.0033333
        k(  216) = (   0.1333333   0.3166667   0.0000000), wk =   0.0033333
        k(  217) = (   0.1333333   0.3333333   0.0000000), wk =   0.0033333
        k(  218) = (   0.1333333   0.3500000   0.0000000), wk =   0.0033333
        k(  219) = (   0.1333333   0.3666667   0.0000000), wk =   0.0033333
        k(  220) = (   0.1333333   0.3833333   0.0000000), wk =   0.0033333
        k(  221) = (   0.1333333   0.4000000   0.0000000), wk =   0.0033333
        k(  222) = (   0.1333333   0.4166667   0.0000000), wk =   0.0033333
        k(  223) = (   0.1333333   0.4333333   0.0000000), wk =   0.0016667
        k(  224) = (   0.1500000   0.1500000   0.0000000), wk =   0.0016667
        k(  225) = (   0.1500000   0.1666667   0.0000000), wk =   0.0033333
        k(  226) = (   0.1500000   0.1833333   0.0000000), wk =   0.0033333
        k(  227) = (   0.1500000   0.2000000   0.0000000), wk =   0.0033333
        k(  228) = (   0.1500000   0.2166667   0.0000000), wk =   0.0033333
        k(  229) = (   0.1500000   0.2333333   0.0000000), wk =   0.0033333
        k(  230) = (   0.1500000   0.2500000   0.0000000), wk =   0.0033333
        k(  231) = (   0.1500000   0.2666667   0.0000000), wk =   0.0033333
        k(  232) = (   0.1500000   0.2833333   0.0000000), wk =   0.0033333
        k(  233) = (   0.1500000   0.3000000   0.0000000), wk =   0.0033333
        k(  234) = (   0.1500000   0.3166667   0.0000000), wk =   0.0033333
        k(  235) = (   0.1500000   0.3333333   0.0000000), wk =   0.0033333
        k(  236) = (   0.1500000   0.3500000   0.0000000), wk =   0.0033333
        k(  237) = (   0.1500000   0.3666667   0.0000000), wk =   0.0033333
        k(  238) = (   0.1500000   0.3833333   0.0000000), wk =   0.0033333
        k(  239) = (   0.1500000   0.4000000   0.0000000), wk =   0.0033333
        k(  240) = (   0.1500000   0.4166667   0.0000000), wk =   0.0033333
        k(  241) = (   0.1666667   0.1666667   0.0000000), wk =   0.0016667
        k(  242) = (   0.1666667   0.1833333   0.0000000), wk =   0.0033333
        k(  243) = (   0.1666667   0.2000000   0.0000000), wk =   0.0033333
        k(  244) = (   0.1666667   0.2166667   0.0000000), wk =   0.0033333
        k(  245) = (   0.1666667   0.2333333   0.0000000), wk =   0.0033333
        k(  246) = (   0.1666667   0.2500000   0.0000000), wk =   0.0033333
        k(  247) = (   0.1666667   0.2666667   0.0000000), wk =   0.0033333
        k(  248) = (   0.1666667   0.2833333   0.0000000), wk =   0.0033333
        k(  249) = (   0.1666667   0.3000000   0.0000000), wk =   0.0033333
        k(  250) = (   0.1666667   0.3166667   0.0000000), wk =   0.0033333
        k(  251) = (   0.1666667   0.3333333   0.0000000), wk =   0.0033333
        k(  252) = (   0.1666667   0.3500000   0.0000000), wk =   0.0033333
        k(  253) = (   0.1666667   0.3666667   0.0000000), wk =   0.0033333
        k(  254) = (   0.1666667   0.3833333   0.0000000), wk =   0.0033333
        k(  255) = (   0.1666667   0.4000000   0.0000000), wk =   0.0033333
        k(  256) = (   0.1666667   0.4166667   0.0000000), wk =   0.0016667
        k(  257) = (   0.1833333   0.1833333   0.0000000), wk =   0.0016667
        k(  258) = (   0.1833333   0.2000000   0.0000000), wk =   0.0033333
        k(  259) = (   0.1833333   0.2166667   0.0000000), wk =   0.0033333
        k(  260) = (   0.1833333   0.2333333   0.0000000), wk =   0.0033333
        k(  261) = (   0.1833333   0.2500000   0.0000000), wk =   0.0033333
        k(  262) = (   0.1833333   0.2666667   0.0000000), wk =   0.0033333
        k(  263) = (   0.1833333   0.2833333   0.0000000), wk =   0.0033333
        k(  264) = (   0.1833333   0.3000000   0.0000000), wk =   0.0033333
        k(  265) = (   0.1833333   0.3166667   0.0000000), wk =   0.0033333
        k(  266) = (   0.1833333   0.3333333   0.0000000), wk =   0.0033333
        k(  267) = (   0.1833333   0.3500000   0.0000000), wk =   0.0033333
        k(  268) = (   0.1833333   0.3666667   0.0000000), wk =   0.0033333
        k(  269) = (   0.1833333   0.3833333   0.0000000), wk =   0.0033333
        k(  270) = (   0.1833333   0.4000000   0.0000000), wk =   0.0033333
        k(  271) = (   0.2000000   0.2000000   0.0000000), wk =   0.0016667
        k(  272) = (   0.2000000   0.2166667   0.0000000), wk =   0.0033333
        k(  273) = (   0.2000000   0.2333333   0.0000000), wk =   0.0033333
        k(  274) = (   0.2000000   0.2500000   0.0000000), wk =   0.0033333
        k(  275) = (   0.2000000   0.2666667   0.0000000), wk =   0.0033333
        k(  276) = (   0.2000000   0.2833333   0.0000000), wk =   0.0033333
        k(  277) = (   0.2000000   0.3000000   0.0000000), wk =   0.0033333
        k(  278) = (   0.2000000   0.3166667   0.0000000), wk =   0.0033333
        k(  279) = (   0.2000000   0.3333333   0.0000000), wk =   0.0033333
        k(  280) = (   0.2000000   0.3500000   0.0000000), wk =   0.0033333
        k(  281) = (   0.2000000   0.3666667   0.0000000), wk =   0.0033333
        k(  282) = (   0.2000000   0.3833333   0.0000000), wk =   0.0033333
        k(  283) = (   0.2000000   0.4000000   0.0000000), wk =   0.0016667
        k(  284) = (   0.2166667   0.2166667   0.0000000), wk =   0.0016667
        k(  285) = (   0.2166667   0.2333333   0.0000000), wk =   0.0033333
        k(  286) = (   0.2166667   0.2500000   0.0000000), wk =   0.0033333
        k(  287) = (   0.2166667   0.2666667   0.0000000), wk =   0.0033333
        k(  288) = (   0.2166667   0.2833333   0.0000000), wk =   0.0033333
        k(  289) = (   0.2166667   0.3000000   0.0000000), wk =   0.0033333
        k(  290) = (   0.2166667   0.3166667   0.0000000), wk =   0.0033333
        k(  291) = (   0.2166667   0.3333333   0.0000000), wk =   0.0033333
        k(  292) = (   0.2166667   0.3500000   0.0000000), wk =   0.0033333
        k(  293) = (   0.2166667   0.3666667   0.0000000), wk =   0.0033333
        k(  294) = (   0.2166667   0.3833333   0.0000000), wk =   0.0033333
        k(  295) = (   0.2333333   0.2333333   0.0000000), wk =   0.0016667
        k(  296) = (   0.2333333   0.2500000   0.0000000), wk =   0.0033333
        k(  297) = (   0.2333333   0.2666667   0.0000000), wk =   0.0033333
        k(  298) = (   0.2333333   0.2833333   0.0000000), wk =   0.0033333
        k(  299) = (   0.2333333   0.3000000   0.0000000), wk =   0.0033333
        k(  300) = (   0.2333333   0.3166667   0.0000000), wk =   0.0033333
        k(  301) = (   0.2333333   0.3333333   0.0000000), wk =   0.0033333
        k(  302) = (   0.2333333   0.3500000   0.0000000), wk =   0.0033333
        k(  303) = (   0.2333333   0.3666667   0.0000000), wk =   0.0033333
        k(  304) = (   0.2333333   0.3833333   0.0000000), wk =   0.0016667
        k(  305) = (   0.2500000   0.2500000   0.0000000), wk =   0.0016667
        k(  306) = (   0.2500000   0.2666667   0.0000000), wk =   0.0033333
        k(  307) = (   0.2500000   0.2833333   0.0000000), wk =   0.0033333
        k(  308) = (   0.2500000   0.3000000   0.0000000), wk =   0.0033333
        k(  309) = (   0.2500000   0.3166667   0.0000000), wk =   0.0033333
        k(  310) = (   0.2500000   0.3333333   0.0000000), wk =   0.0033333
        k(  311) = (   0.2500000   0.3500000   0.0000000), wk =   0.0033333
        k(  312) = (   0.2500000   0.3666667   0.0000000), wk =   0.0033333
        k(  313) = (   0.2666667   0.2666667   0.0000000), wk =   0.0016667
        k(  314) = (   0.2666667   0.2833333   0.0000000), wk =   0.0033333
        k(  315) = (   0.2666667   0.3000000   0.0000000), wk =   0.0033333
        k(  316) = (   0.2666667   0.3166667   0.0000000), wk =   0.0033333
        k(  317) = (   0.2666667   0.3333333   0.0000000), wk =   0.0033333
        k(  318) = (   0.2666667   0.3500000   0.0000000), wk =   0.0033333
        k(  319) = (   0.2666667   0.3666667   0.0000000), wk =   0.0016667
        k(  320) = (   0.2833333   0.2833333   0.0000000), wk =   0.0016667
        k(  321) = (   0.2833333   0.3000000   0.0000000), wk =   0.0033333
        k(  322) = (   0.2833333   0.3166667   0.0000000), wk =   0.0033333
        k(  323) = (   0.2833333   0.3333333   0.0000000), wk =   0.0033333
        k(  324) = (   0.2833333   0.3500000   0.0000000), wk =   0.0033333
        k(  325) = (   0.3000000   0.3000000   0.0000000), wk =   0.0016667
        k(  326) = (   0.3000000   0.3166667   0.0000000), wk =   0.0033333
        k(  327) = (   0.3000000   0.3333333   0.0000000), wk =   0.0033333
        k(  328) = (   0.3000000   0.3500000   0.0000000), wk =   0.0016667
        k(  329) = (   0.3166667   0.3166667   0.0000000), wk =   0.0016667
        k(  330) = (   0.3166667   0.3333333   0.0000000), wk =   0.0033333
        k(  331) = (   0.3333333   0.3333333   0.0000000), wk =   0.0005556

     Dense  grid:   159161 G-vectors     FFT dimensions: (  50,  50, 144)

     Dynamical RAM for                 wfc:      91.04 MB

     Dynamical RAM for     wfc (w. buffer):      91.04 MB

     Dynamical RAM for           str. fact:       0.61 MB

     Dynamical RAM for           local pot:       0.00 MB

     Dynamical RAM for          nlocal pot:       5.16 MB

     Dynamical RAM for                qrad:       3.76 MB

     Dynamical RAM for          rho,v,vnew:      15.53 MB

     Dynamical RAM for           G-vectors:       2.58 MB

     Dynamical RAM for          h,s,v(r/c):      65.92 MB

     Dynamical RAM for          <psi|beta>:       1.25 MB

     Dynamical RAM for                 psi:     182.08 MB

     Dynamical RAM for                hpsi:     182.08 MB

     Dynamical RAM for      wfcinit/wfcrot:     144.80 MB

     Estimated static dynamical RAM per process >     125.38 MB

     Estimated max dynamical RAM per process >     556.70 MB

     Estimated total dynamical RAM >       2.17 GB

     The potential is recalculated from file :
     ./kpoints_60-nbnds_600.save/charge-density

     Starting wfcs are random

     Band Structure Calculation
     Davidson diagonalization with overlap

     Computing kpt #:     1  of   331
     total cpu time spent up to now is        9.4 secs

     Computing kpt #:     2  of   331
     total cpu time spent up to now is       17.6 secs

     Computing kpt #:     3  of   331
     total cpu time spent up to now is       25.6 secs

     Computing kpt #:     4  of   331
     total cpu time spent up to now is       33.8 secs

     Computing kpt #:     5  of   331
     total cpu time spent up to now is       42.0 secs

     Computing kpt #:     6  of   331
     total cpu time spent up to now is       51.1 secs

     Computing kpt #:     7  of   331
     total cpu time spent up to now is       59.1 secs

     Computing kpt #:     8  of   331
     total cpu time spent up to now is       67.1 secs

     Computing kpt #:     9  of   331
     total cpu time spent up to now is       75.1 secs

     Computing kpt #:    10  of   331
     total cpu time spent up to now is       83.2 secs

     Computing kpt #:    11  of   331
     total cpu time spent up to now is       91.2 secs

     Computing kpt #:    12  of   331
     total cpu time spent up to now is       99.2 secs

     Computing kpt #:    13  of   331
     total cpu time spent up to now is      107.3 secs

     Computing kpt #:    14  of   331
     total cpu time spent up to now is      115.2 secs

     Computing kpt #:    15  of   331
     total cpu time spent up to now is      123.2 secs

     Computing kpt #:    16  of   331
     total cpu time spent up to now is      131.2 secs

     Computing kpt #:    17  of   331
     total cpu time spent up to now is      139.1 secs

     Computing kpt #:    18  of   331
     total cpu time spent up to now is      148.4 secs

     Computing kpt #:    19  of   331
     total cpu time spent up to now is      156.3 secs

     Computing kpt #:    20  of   331
     total cpu time spent up to now is      164.2 secs

     Computing kpt #:    21  of   331
     total cpu time spent up to now is      172.1 secs

     Computing kpt #:    22  of   331
     total cpu time spent up to now is      180.0 secs

     Computing kpt #:    23  of   331
     total cpu time spent up to now is      188.0 secs

     Computing kpt #:    24  of   331
     total cpu time spent up to now is      195.9 secs

     Computing kpt #:    25  of   331
     total cpu time spent up to now is      204.0 secs

     Computing kpt #:    26  of   331
     total cpu time spent up to now is      211.9 secs

     Computing kpt #:    27  of   331
     total cpu time spent up to now is      220.0 secs

     Computing kpt #:    28  of   331
     total cpu time spent up to now is      228.0 secs

     Computing kpt #:    29  of   331
     total cpu time spent up to now is      235.9 secs

     Computing kpt #:    30  of   331
     total cpu time spent up to now is      244.3 secs

     Computing kpt #:    31  of   331
     total cpu time spent up to now is      252.3 secs

     Computing kpt #:    32  of   331
     total cpu time spent up to now is      260.3 secs

     Computing kpt #:    33  of   331
     total cpu time spent up to now is      268.5 secs

     Computing kpt #:    34  of   331
     total cpu time spent up to now is      277.7 secs

     Computing kpt #:    35  of   331
     total cpu time spent up to now is      285.9 secs

     Computing kpt #:    36  of   331
     total cpu time spent up to now is      294.0 secs

     Computing kpt #:    37  of   331
     total cpu time spent up to now is      302.0 secs

     Computing kpt #:    38  of   331
     total cpu time spent up to now is      310.0 secs

     Computing kpt #:    39  of   331
     total cpu time spent up to now is      318.0 secs

     Computing kpt #:    40  of   331
     total cpu time spent up to now is      326.0 secs

     Computing kpt #:    41  of   331
     total cpu time spent up to now is      334.1 secs

     Computing kpt #:    42  of   331
     total cpu time spent up to now is      342.1 secs

     Computing kpt #:    43  of   331
     total cpu time spent up to now is      351.3 secs

     Computing kpt #:    44  of   331
     total cpu time spent up to now is      359.3 secs

     Computing kpt #:    45  of   331
     total cpu time spent up to now is      367.3 secs

     Computing kpt #:    46  of   331
     total cpu time spent up to now is      375.2 secs

     Computing kpt #:    47  of   331
     total cpu time spent up to now is      383.2 secs

     Computing kpt #:    48  of   331
     total cpu time spent up to now is      391.1 secs

     Computing kpt #:    49  of   331
     total cpu time spent up to now is      399.0 secs

     Computing kpt #:    50  of   331
     total cpu time spent up to now is      407.2 secs

     Computing kpt #:    51  of   331
     total cpu time spent up to now is      415.1 secs

     Computing kpt #:    52  of   331
     total cpu time spent up to now is      423.0 secs

     Computing kpt #:    53  of   331
     total cpu time spent up to now is      430.9 secs

     Computing kpt #:    54  of   331
     total cpu time spent up to now is      438.8 secs

     Computing kpt #:    55  of   331
     total cpu time spent up to now is      446.8 secs

     Computing kpt #:    56  of   331
     total cpu time spent up to now is      455.0 secs

     Computing kpt #:    57  of   331
     total cpu time spent up to now is      463.0 secs

     Computing kpt #:    58  of   331
     total cpu time spent up to now is      471.0 secs

     Computing kpt #:    59  of   331
     total cpu time spent up to now is      478.9 secs

     Computing kpt #:    60  of   331
     total cpu time spent up to now is      487.2 secs

     Computing kpt #:    61  of   331
     total cpu time spent up to now is      495.4 secs

     Computing kpt #:    62  of   331
     total cpu time spent up to now is      503.4 secs

     Computing kpt #:    63  of   331
     total cpu time spent up to now is      511.5 secs

     Computing kpt #:    64  of   331
     total cpu time spent up to now is      519.7 secs

     Computing kpt #:    65  of   331
     total cpu time spent up to now is      528.9 secs

     Computing kpt #:    66  of   331
     total cpu time spent up to now is      536.9 secs

     Computing kpt #:    67  of   331
     total cpu time spent up to now is      544.9 secs

     Computing kpt #:    68  of   331
     total cpu time spent up to now is      554.4 secs

     Computing kpt #:    69  of   331
     total cpu time spent up to now is      562.4 secs

     Computing kpt #:    70  of   331
     total cpu time spent up to now is      570.5 secs

     Computing kpt #:    71  of   331
     total cpu time spent up to now is      578.5 secs

     Computing kpt #:    72  of   331
     total cpu time spent up to now is      586.5 secs

     Computing kpt #:    73  of   331
     total cpu time spent up to now is      594.4 secs

     Computing kpt #:    74  of   331
     total cpu time spent up to now is      602.3 secs

     Computing kpt #:    75  of   331
     total cpu time spent up to now is      610.2 secs

     Computing kpt #:    76  of   331
     total cpu time spent up to now is      618.2 secs

     Computing kpt #:    77  of   331
     total cpu time spent up to now is      626.2 secs

     Computing kpt #:    78  of   331
     total cpu time spent up to now is      634.1 secs

     Computing kpt #:    79  of   331
     total cpu time spent up to now is      642.1 secs

     Computing kpt #:    80  of   331
     total cpu time spent up to now is      650.3 secs

     Computing kpt #:    81  of   331
     total cpu time spent up to now is      658.3 secs

     Computing kpt #:    82  of   331
     total cpu time spent up to now is      666.3 secs

     Computing kpt #:    83  of   331
     total cpu time spent up to now is      674.5 secs

     Computing kpt #:    84  of   331
     total cpu time spent up to now is      682.4 secs

     Computing kpt #:    85  of   331
     total cpu time spent up to now is      690.4 secs

     Computing kpt #:    86  of   331
     total cpu time spent up to now is      698.3 secs

     Computing kpt #:    87  of   331
     total cpu time spent up to now is      706.3 secs

     Computing kpt #:    88  of   331
     total cpu time spent up to now is      714.2 secs

     Computing kpt #:    89  of   331
     total cpu time spent up to now is      723.4 secs

     Computing kpt #:    90  of   331
     total cpu time spent up to now is      731.5 secs

     Computing kpt #:    91  of   331
     total cpu time spent up to now is      739.5 secs

     Computing kpt #:    92  of   331
     total cpu time spent up to now is      747.5 secs

     Computing kpt #:    93  of   331
     total cpu time spent up to now is      755.5 secs

     Computing kpt #:    94  of   331
     total cpu time spent up to now is      763.7 secs

     Computing kpt #:    95  of   331
     total cpu time spent up to now is      771.7 secs

     Computing kpt #:    96  of   331
     total cpu time spent up to now is      779.7 secs

     Computing kpt #:    97  of   331
     total cpu time spent up to now is      787.6 secs

     Computing kpt #:    98  of   331
     total cpu time spent up to now is      795.6 secs

     Computing kpt #:    99  of   331
     total cpu time spent up to now is      803.6 secs

     Computing kpt #:   100  of   331
     total cpu time spent up to now is      811.6 secs

     Computing kpt #:   101  of   331
     total cpu time spent up to now is      819.6 secs

     Computing kpt #:   102  of   331
     total cpu time spent up to now is      827.5 secs

     Computing kpt #:   103  of   331
     total cpu time spent up to now is      835.8 secs

     Computing kpt #:   104  of   331
     total cpu time spent up to now is      845.0 secs

     Computing kpt #:   105  of   331
     total cpu time spent up to now is      853.0 secs

     Computing kpt #:   106  of   331
     total cpu time spent up to now is      861.2 secs

     Computing kpt #:   107  of   331
     total cpu time spent up to now is      869.1 secs

     Computing kpt #:   108  of   331
     total cpu time spent up to now is      877.1 secs

     Computing kpt #:   109  of   331
     total cpu time spent up to now is      885.1 secs

     Computing kpt #:   110  of   331
     total cpu time spent up to now is      893.0 secs

     Computing kpt #:   111  of   331
     total cpu time spent up to now is      902.1 secs

     Computing kpt #:   112  of   331
     total cpu time spent up to now is      911.3 secs

     Computing kpt #:   113  of   331
     total cpu time spent up to now is      919.6 secs

     Computing kpt #:   114  of   331
     total cpu time spent up to now is      927.6 secs

     Computing kpt #:   115  of   331
     total cpu time spent up to now is      935.6 secs

     Computing kpt #:   116  of   331
     total cpu time spent up to now is      943.7 secs

     Computing kpt #:   117  of   331
     total cpu time spent up to now is      951.7 secs

     Computing kpt #:   118  of   331
     total cpu time spent up to now is      959.7 secs

     Computing kpt #:   119  of   331
     total cpu time spent up to now is      967.7 secs

     Computing kpt #:   120  of   331
     total cpu time spent up to now is      975.7 secs

     Computing kpt #:   121  of   331
     total cpu time spent up to now is      983.7 secs

     Computing kpt #:   122  of   331
     total cpu time spent up to now is      991.7 secs

     Computing kpt #:   123  of   331
     total cpu time spent up to now is      999.7 secs

     Computing kpt #:   124  of   331
     total cpu time spent up to now is     1007.7 secs

     Computing kpt #:   125  of   331
     total cpu time spent up to now is     1015.6 secs

     Computing kpt #:   126  of   331
     total cpu time spent up to now is     1023.8 secs

     Computing kpt #:   127  of   331
     total cpu time spent up to now is     1033.1 secs

     Computing kpt #:   128  of   331
     total cpu time spent up to now is     1041.0 secs

     Computing kpt #:   129  of   331
     total cpu time spent up to now is     1049.0 secs

     Computing kpt #:   130  of   331
     total cpu time spent up to now is     1056.9 secs

     Computing kpt #:   131  of   331
     total cpu time spent up to now is     1064.9 secs

     Computing kpt #:   132  of   331
     total cpu time spent up to now is     1072.8 secs

     Computing kpt #:   133  of   331
     total cpu time spent up to now is     1080.7 secs

     Computing kpt #:   134  of   331
     total cpu time spent up to now is     1088.7 secs

     Computing kpt #:   135  of   331
     total cpu time spent up to now is     1096.7 secs

     Computing kpt #:   136  of   331
     total cpu time spent up to now is     1104.9 secs

     Computing kpt #:   137  of   331
     total cpu time spent up to now is     1112.9 secs

     Computing kpt #:   138  of   331
     total cpu time spent up to now is     1120.9 secs

     Computing kpt #:   139  of   331
     total cpu time spent up to now is     1129.2 secs

     Computing kpt #:   140  of   331
     total cpu time spent up to now is     1137.3 secs

     Computing kpt #:   141  of   331
     total cpu time spent up to now is     1145.3 secs

     Computing kpt #:   142  of   331
     total cpu time spent up to now is     1153.3 secs

     Computing kpt #:   143  of   331
     total cpu time spent up to now is     1161.4 secs

     Computing kpt #:   144  of   331
     total cpu time spent up to now is     1169.4 secs

     Computing kpt #:   145  of   331
     total cpu time spent up to now is     1177.4 secs

     Computing kpt #:   146  of   331
     total cpu time spent up to now is     1185.3 secs

     Computing kpt #:   147  of   331
     total cpu time spent up to now is     1193.3 secs

     Computing kpt #:   148  of   331
     total cpu time spent up to now is     1201.3 secs

     Computing kpt #:   149  of   331
     total cpu time spent up to now is     1209.2 secs

     Computing kpt #:   150  of   331
     total cpu time spent up to now is     1217.2 secs

     Computing kpt #:   151  of   331
     total cpu time spent up to now is     1225.2 secs

     Computing kpt #:   152  of   331
     total cpu time spent up to now is     1233.2 secs

     Computing kpt #:   153  of   331
     total cpu time spent up to now is     1241.1 secs

     Computing kpt #:   154  of   331
     total cpu time spent up to now is     1249.1 secs

     Computing kpt #:   155  of   331
     total cpu time spent up to now is     1257.4 secs

     Computing kpt #:   156  of   331
     total cpu time spent up to now is     1265.4 secs

     Computing kpt #:   157  of   331
     total cpu time spent up to now is     1273.7 secs

     Computing kpt #:   158  of   331
     total cpu time spent up to now is     1281.6 secs

     Computing kpt #:   159  of   331
     total cpu time spent up to now is     1289.8 secs

     Computing kpt #:   160  of   331
     total cpu time spent up to now is     1298.1 secs

     Computing kpt #:   161  of   331
     total cpu time spent up to now is     1306.1 secs

     Computing kpt #:   162  of   331
     total cpu time spent up to now is     1314.1 secs

     Computing kpt #:   163  of   331
     total cpu time spent up to now is     1322.1 secs

     Computing kpt #:   164  of   331
     total cpu time spent up to now is     1330.1 secs

     Computing kpt #:   165  of   331
     total cpu time spent up to now is     1338.1 secs

     Computing kpt #:   166  of   331
     total cpu time spent up to now is     1346.2 secs

     Computing kpt #:   167  of   331
     total cpu time spent up to now is     1354.1 secs

     Computing kpt #:   168  of   331
     total cpu time spent up to now is     1362.1 secs

     Computing kpt #:   169  of   331
     total cpu time spent up to now is     1370.1 secs

     Computing kpt #:   170  of   331
     total cpu time spent up to now is     1378.1 secs

     Computing kpt #:   171  of   331
     total cpu time spent up to now is     1386.1 secs

     Computing kpt #:   172  of   331
     total cpu time spent up to now is     1394.1 secs

     Computing kpt #:   173  of   331
     total cpu time spent up to now is     1402.4 secs

[...]
     1.0000   1.0000   1.0000   1.0000   1.0000   1.0000   1.0000   1.0000
     1.0000   1.0000   1.0000   1.0000   1.0000   1.0000   1.0000   1.0000
     1.0000   1.0000   1.0000   1.0000   0.0000   0.0000   0.0000   0.0000
     0.0000   0.0000   0.0000   0.0000   0.0000   0.0000   0.0000   0.0000
     0.0000   0.0000   0.0000   0.0000   0.0000   0.0000   0.0000   0.0000
     0.0000   0.0000   0.0000   0.0000   0.0000   0.0000   0.0000   0.0000
     0.0000   0.0000   0.0000   0.0000   0.0000   0.0000   0.0000   0.0000
     0.0000   0.0000   0.0000   0.0000   0.0000   0.0000   0.0000   0.0000
     0.0000   0.0000   0.0000   0.0000   0.0000   0.0000   0.0000   0.0000
     0.0000   0.0000   0.0000   0.0000   0.0000   0.0000   0.0000   0.0000
     0.0000   0.0000   0.0000   0.0000   0.0000   0.0000   0.0000   0.0000
     0.0000   0.0000   0.0000   0.0000   0.0000   0.0000   0.0000   0.0000
     0.0000   0.0000   0.0000   0.0000   0.0000   0.0000   0.0000   0.0000
     0.0000   0.0000   0.0000   0.0000   0.0000   0.0000   0.0000   0.0000
     0.0000   0.0000   0.0000   0.0000   0.0000   0.0000   0.0000   0.0000
     0.0000   0.0000   0.0000   0.0000   0.0000   0.0000   0.0000   0.0000
     0.0000   0.0000   0.0000   0.0000   0.0000   0.0000   0.0000   0.0000
     0.0000   0.0000   0.0000   0.0000   0.0000   0.0000   0.0000   0.0000
     0.0000   0.0000   0.0000   0.0000   0.0000   0.0000   0.0000   0.0000
     0.0000   0.0000   0.0000   0.0000   0.0000   0.0000   0.0000   0.0000
     0.0000   0.0000   0.0000   0.0000   0.0000   0.0000   0.0000   0.0000
     0.0000   0.0000   0.0000   0.0000   0.0000   0.0000   0.0000   0.0000
     0.0000   0.0000   0.0000   0.0000   0.0000   0.0000   0.0000   0.0000
     0.0000   0.0000   0.0000   0.0000   0.0000   0.0000   0.0000   0.0000
     0.0000   0.0000   0.0000   0.0000   0.0000   0.0000   0.0000   0.0000
     0.0000   0.0000   0.0000   0.0000   0.0000   0.0000   0.0000   0.0000
     0.0000   0.0000   0.0000   0.0000   0.0000   0.0000   0.0000   0.0000
     0.0000   0.0000   0.0000   0.0000   0.0000   0.0000   0.0000   0.0000
     0.0000   0.0000   0.0000   0.0000   0.0000   0.0000   0.0000   0.0000
     0.0000   0.0000   0.0000   0.0000   0.0000   0.0000   0.0000   0.0000
     0.0000   0.0000   0.0000   0.0000   0.0000   0.0000   0.0000   0.0000
     0.0000   0.0000   0.0000   0.0000   0.0000   0.0000   0.0000   0.0000
     0.0000   0.0000   0.0000   0.0000   0.0000   0.0000   0.0000   0.0000
     0.0000   0.0000   0.0000   0.0000   0.0000   0.0000   0.0000   0.0000
     0.0000   0.0000   0.0000   0.0000   0.0000   0.0000   0.0000   0.0000
     0.0000   0.0000   0.0000   0.0000   0.0000   0.0000   0.0000   0.0000
     0.0000   0.0000   0.0000   0.0000   0.0000   0.0000   0.0000   0.0000
     0.0000   0.0000   0.0000   0.0000   0.0000   0.0000   0.0000   0.0000
     0.0000   0.0000   0.0000   0.0000   0.0000   0.0000   0.0000   0.0000
     0.0000   0.0000   0.0000   0.0000   0.0000   0.0000   0.0000   0.0000
     0.0000   0.0000   0.0000   0.0000   0.0000   0.0000   0.0000   0.0000
     0.0000   0.0000   0.0000   0.0000   0.0000   0.0000   0.0000   0.0000
     0.0000   0.0000   0.0000   0.0000   0.0000   0.0000   0.0000   0.0000
     0.0000   0.0000   0.0000   0.0000   0.0000   0.0000   0.0000   0.0000
     0.0000   0.0000   0.0000   0.0000   0.0000   0.0000   0.0000   0.0000
     0.0000   0.0000   0.0000   0.0000   0.0000   0.0000   0.0000   0.0000
     0.0000   0.0000   0.0000   0.0000   0.0000   0.0000   0.0000   0.0000
     0.0000   0.0000   0.0000   0.0000   0.0000   0.0000   0.0000   0.0000
     0.0000   0.0000   0.0000   0.0000   0.0000   0.0000   0.0000   0.0000
     0.0000   0.0000   0.0000   0.0000   0.0000   0.0000   0.0000   0.0000
     0.0000   0.0000   0.0000   0.0000   0.0000   0.0000   0.0000   0.0000
     0.0000   0.0000   0.0000   0.0000   0.0000   0.0000   0.0000   0.0000
     0.0000   0.0000   0.0000   0.0000   0.0000   0.0000   0.0000   0.0000
     0.0000   0.0000   0.0000   0.0000   0.0000   0.0000   0.0000   0.0000
     0.0000   0.0000   0.0000   0.0000   0.0000   0.0000   0.0000   0.0000
     0.0000   0.0000   0.0000   0.0000   0.0000   0.0000   0.0000   0.0000
     0.0000   0.0000   0.0000   0.0000   0.0000   0.0000   0.0000   0.0000
     0.0000   0.0000   0.0000   0.0000   0.0000   0.0000   0.0000   0.0000
     0.0000   0.0000   0.0000   0.0000   0.0000   0.0000   0.0000   0.0000
     0.0000   0.0000   0.0000   0.0000   0.0000   0.0000   0.0000   0.0000
     0.0000   0.0000   0.0000   0.0000   0.0000   0.0000   0.0000   0.0000
     0.0000   0.0000   0.0000   0.0000   0.0000   0.0000   0.0000   0.0000
     0.0000   0.0000   0.0000   0.0000   0.0000   0.0000   0.0000   0.0000
     0.0000   0.0000   0.0000   0.0000   0.0000   0.0000   0.0000   0.0000
     0.0000   0.0000   0.0000   0.0000   0.0000   0.0000   0.0000   0.0000
     0.0000   0.0000   0.0000   0.0000   0.0000   0.0000   0.0000   0.0000
     0.0000   0.0000   0.0000   0.0000   0.0000   0.0000   0.0000   0.0000
     0.0000   0.0000   0.0000   0.0000   0.0000   0.0000   0.0000   0.0000
     0.0000   0.0000   0.0000   0.0000   0.0000   0.0000   0.0000   0.0000
     0.0000   0.0000   0.0000   0.0000   0.0000   0.0000   0.0000   0.0000
     0.0000   0.0000   0.0000   0.0000   0.0000   0.0000   0.0000   0.0000
     0.0000   0.0000   0.0000   0.0000   0.0000   0.0000   0.0000   0.0000
     0.0000   0.0000   0.0000   0.0000   0.0000   0.0000   0.0000   0.0000
     0.0000   0.0000   0.0000   0.0000   0.0000   0.0000   0.0000   0.0000

          k = 0.3333 0.5774 0.0000 ( 19848 PWs)   bands (ev):

   -22.4358 -22.4358 -22.3897 -22.3897 -22.3835 -22.3835 -22.3140 -22.3140
   -21.4408 -21.4408 -21.3781 -21.3781 -21.3733 -21.3733 -21.2599 -21.2599
   -21.2494 -21.2494 -21.1366 -21.1366  -7.4995  -7.4995  -7.4984  -7.4984
    -3.3777  -3.3777  -0.5628  -0.5628  -0.4744  -0.4744   3.1504   3.1504
     4.4250   4.4250   4.5940   4.5940   5.2291   5.2291   5.2881   5.2881
     5.4801   5.4801   6.4401   6.4401   6.8668   6.8668   6.8704   6.8704
     7.3421   7.3421   7.3474   7.3474   7.4351   7.4351   7.8569   7.8569
    10.2585  10.2585  10.2725  10.2725  10.5127  10.5127  10.9731  10.9731
    10.9919  10.9919  11.5258  11.5258  11.6154  11.6154  11.6639  11.6639
    12.0408  12.0408  12.9110  12.9110  14.3482  14.3482  14.4922  14.4922
    14.7818  14.7818  14.7842  14.7842  14.8918  14.8918  16.1962  16.1962
    16.2011  16.2011  16.3801  16.3801  16.4028  16.4028  16.4774  16.4774
    16.6650  16.6650  16.7220  16.7220  16.7280  16.7280  16.9898  16.9898
    16.9990  16.9990  17.1164  17.1164  17.3094  17.3094  17.3859  17.3859
    17.4059  17.4059  17.5692  17.5692  18.5484  18.5484  18.6644  18.6644
    18.7772  18.7772  18.9697  18.9697  19.4855  19.4855  19.6451  19.6451
    20.2385  20.2385  20.3286  20.3286  20.4613  20.4613  20.5276  20.5276
    20.8688  20.8688  21.0271  21.0271  21.1421  21.1421  21.8227  21.8227
    21.8344  21.8344  21.9505  21.9505  23.6908  23.6908  23.7088  23.7088
    23.7274  23.7274  24.1956  24.1956  24.2542  24.2542  24.4070  24.4070
    24.4222  24.4222  24.5923  24.5923  24.8267  24.8267  24.8983  24.8983
    24.9006  24.9006  25.0895  25.0895  25.8075  25.8075  25.8172  25.8172
    25.8532  25.8532  25.9358  25.9358  25.9850  25.9850  25.9972  25.9972
    26.1458  26.1458  26.1754  26.1754  26.1831  26.1831  26.3048  26.3048
    26.3558  26.3558  26.4064  26.4064  26.6473  26.6473  26.6484  26.6484
    26.7896  26.7896  26.8679  26.8679  26.9559  26.9559  27.0243  27.0243
    29.4440  29.4440  29.5185  29.5185  29.5849  29.5849  29.6327  29.6327
    29.8411  29.8411  29.9374  29.9374  29.9821  29.9821  30.0580  30.0580
    30.0820  30.0820  30.2021  30.2021  30.2103  30.2103  30.2614  30.2614
    31.8601  31.8601  32.2062  32.2062  32.4058  32.4058  32.7783  32.7783
    32.7814  32.7814  33.1533  33.1533  33.3391  33.3391  33.4728  33.4728
    34.1132  34.1132  34.1515  34.1515  34.1654  34.1654  34.2982  34.2982
    34.3173  34.3173  34.5054  34.5054  34.5863  34.5863  34.7211  34.7211
    34.8223  34.8223  35.2956  35.2956  35.3948  35.3948  35.5294  35.5294
    35.8357  35.8357  35.8421  35.8421  35.9045  35.9045  35.9858  35.9858
    36.1039  36.1039  36.2173  36.2173  36.2674  36.2674  36.5825  36.5825
    36.6753  36.6753  36.7426  36.7426  37.7882  37.7882  37.9839  37.9839
    38.6038  38.6038  39.7260  39.7260  39.8181  39.8181  40.4843  40.4843
    41.0311  41.0311  41.1078  41.1078  41.5163  41.5163  42.0950  42.0950
    42.3086  42.3086  42.3656  42.3656  42.4036  42.4036  42.6725  42.6725
    42.7191  42.7191  42.7847  42.7847  42.9380  42.9380  42.9954  42.9954
    43.1218  43.1218  43.2050  43.2050  43.2322  43.2322  43.4863  43.4863
    43.5605  43.5605  43.6551  43.6551  43.7034  43.7034  43.9001  43.9001
    43.9175  43.9175  44.0912  44.0912  44.1281  44.1281  44.1372  44.1372
    44.2746  44.2746  44.3359  44.3359  44.5474  44.5474  44.6412  44.6412
    44.6414  44.6414  44.7362  44.7362  44.8687  44.8687  44.9513  44.9513
    44.9930  44.9930  45.0931  45.0931  45.1865  45.1865  45.3376  45.3376
    45.3821  45.3821  45.4685  45.4685  45.6301  45.6301  45.9004  45.9004
    45.9844  45.9844  46.2654  46.2654  46.4217  46.4217  46.5157  46.5157
    46.9922  46.9922  47.2057  47.2057  47.5102  47.5102  47.5204  47.5204
    48.0977  48.0977  48.2171  48.2171  48.2508  48.2508  48.4733  48.4733
    48.6353  48.6353  48.9112  48.9112  49.0344  49.0344  49.0401  49.0401
    49.0849  49.0849  49.1451  49.1451  49.2916  49.2916  49.5975  49.5975
    49.6916  49.6916  50.5829  50.5829  51.1245  51.1245  51.4287  51.4287
    51.4931  51.4931  51.6569  51.6569  51.7678  51.7678  51.9023  51.9023
    52.0466  52.0466  52.3418  52.3418  52.3449  52.3449  52.5478  52.5478
    52.5744  52.5744  52.6243  52.6243  52.8300  52.8300  52.9422  52.9422
    53.0862  53.0862  53.2758  53.2758  53.2939  53.2939  53.4171  53.4171
    53.4552  53.4552  53.6638  53.6638  53.7497  53.7497  53.9449  53.9449
    54.0443  54.0443  54.0553  54.0553  54.1576  54.1576  54.2365  54.2365
    54.2649  54.2649  54.5606  54.5606  54.6207  54.6207  54.7128  54.7128
    54.7921  54.7921  54.8133  54.8133  54.8446  54.8446  54.8957  54.8957
    54.9538  54.9538  55.0054  55.0054  55.0368  55.0368  55.5289  55.5289
    55.6494  55.6494  55.7973  55.7973  56.2444  56.2444  56.2862  56.2862
    56.7470  56.7470  56.8702  56.8702  57.0814  57.0814  57.3206  57.3206
    57.6121  57.6121  57.9822  57.9822  58.1287  58.1287  58.1322  58.1322
    58.2702  58.2702  58.2874  58.2874  58.5345  58.5345  58.6182  58.6182
    58.6966  58.6966  59.1805  59.1805  59.2872  59.2872  59.5772  59.5772
    59.7317  59.7317  59.8439  59.8439  59.8584  59.8584  60.6851  60.6851
    60.7471  60.7471  61.0795  61.0795  61.0953  61.0953  61.2087  61.2087
    61.2822  61.2822  61.5609  61.5609  61.7453  61.7453  61.8698  61.8698
    61.8723  61.8723  62.0528  62.0528  62.1080  62.1080  62.1894  62.1894
    62.2790  62.2790  62.4082  62.4082  62.4309  62.4309  62.4603  62.4603
    62.5844  62.5844  62.8491  62.8491  62.8812  62.8812  62.9494  62.9494
    63.2675  63.2675  63.2810  63.2810  63.3249  63.3249  63.4015  63.4015

     occupation numbers 
     1.0000   1.0000   1.0000   1.0000   1.0000   1.0000   1.0000   1.0000
     1.0000   1.0000   1.0000   1.0000   1.0000   1.0000   1.0000   1.0000
     1.0000   1.0000   1.0000   1.0000   1.0000   1.0000   1.0000   1.0000
     1.0000   1.0000   1.0000   1.0000   0.0000   0.0000   0.0000   0.0000
     0.0000   0.0000   0.0000   0.0000   0.0000   0.0000   0.0000   0.0000
     0.0000   0.0000   0.0000   0.0000   0.0000   0.0000   0.0000   0.0000
     0.0000   0.0000   0.0000   0.0000   0.0000   0.0000   0.0000   0.0000
     0.0000   0.0000   0.0000   0.0000   0.0000   0.0000   0.0000   0.0000
     0.0000   0.0000   0.0000   0.0000   0.0000   0.0000   0.0000   0.0000
     0.0000   0.0000   0.0000   0.0000   0.0000   0.0000   0.0000   0.0000
     0.0000   0.0000   0.0000   0.0000   0.0000   0.0000   0.0000   0.0000
     0.0000   0.0000   0.0000   0.0000   0.0000   0.0000   0.0000   0.0000
     0.0000   0.0000   0.0000   0.0000   0.0000   0.0000   0.0000   0.0000
     0.0000   0.0000   0.0000   0.0000   0.0000   0.0000   0.0000   0.0000
     0.0000   0.0000   0.0000   0.0000   0.0000   0.0000   0.0000   0.0000
     0.0000   0.0000   0.0000   0.0000   0.0000   0.0000   0.0000   0.0000
     0.0000   0.0000   0.0000   0.0000   0.0000   0.0000   0.0000   0.0000
     0.0000   0.0000   0.0000   0.0000   0.0000   0.0000   0.0000   0.0000
     0.0000   0.0000   0.0000   0.0000   0.0000   0.0000   0.0000   0.0000
     0.0000   0.0000   0.0000   0.0000   0.0000   0.0000   0.0000   0.0000
     0.0000   0.0000   0.0000   0.0000   0.0000   0.0000   0.0000   0.0000
     0.0000   0.0000   0.0000   0.0000   0.0000   0.0000   0.0000   0.0000
     0.0000   0.0000   0.0000   0.0000   0.0000   0.0000   0.0000   0.0000
     0.0000   0.0000   0.0000   0.0000   0.0000   0.0000   0.0000   0.0000
     0.0000   0.0000   0.0000   0.0000   0.0000   0.0000   0.0000   0.0000
     0.0000   0.0000   0.0000   0.0000   0.0000   0.0000   0.0000   0.0000
     0.0000   0.0000   0.0000   0.0000   0.0000   0.0000   0.0000   0.0000
     0.0000   0.0000   0.0000   0.0000   0.0000   0.0000   0.0000   0.0000
     0.0000   0.0000   0.0000   0.0000   0.0000   0.0000   0.0000   0.0000
     0.0000   0.0000   0.0000   0.0000   0.0000   0.0000   0.0000   0.0000
     0.0000   0.0000   0.0000   0.0000   0.0000   0.0000   0.0000   0.0000
     0.0000   0.0000   0.0000   0.0000   0.0000   0.0000   0.0000   0.0000
     0.0000   0.0000   0.0000   0.0000   0.0000   0.0000   0.0000   0.0000
     0.0000   0.0000   0.0000   0.0000   0.0000   0.0000   0.0000   0.0000
     0.0000   0.0000   0.0000   0.0000   0.0000   0.0000   0.0000   0.0000
     0.0000   0.0000   0.0000   0.0000   0.0000   0.0000   0.0000   0.0000
     0.0000   0.0000   0.0000   0.0000   0.0000   0.0000   0.0000   0.0000
     0.0000   0.0000   0.0000   0.0000   0.0000   0.0000   0.0000   0.0000
     0.0000   0.0000   0.0000   0.0000   0.0000   0.0000   0.0000   0.0000
     0.0000   0.0000   0.0000   0.0000   0.0000   0.0000   0.0000   0.0000
     0.0000   0.0000   0.0000   0.0000   0.0000   0.0000   0.0000   0.0000
     0.0000   0.0000   0.0000   0.0000   0.0000   0.0000   0.0000   0.0000
     0.0000   0.0000   0.0000   0.0000   0.0000   0.0000   0.0000   0.0000
     0.0000   0.0000   0.0000   0.0000   0.0000   0.0000   0.0000   0.0000
     0.0000   0.0000   0.0000   0.0000   0.0000   0.0000   0.0000   0.0000
     0.0000   0.0000   0.0000   0.0000   0.0000   0.0000   0.0000   0.0000
     0.0000   0.0000   0.0000   0.0000   0.0000   0.0000   0.0000   0.0000
     0.0000   0.0000   0.0000   0.0000   0.0000   0.0000   0.0000   0.0000
     0.0000   0.0000   0.0000   0.0000   0.0000   0.0000   0.0000   0.0000
     0.0000   0.0000   0.0000   0.0000   0.0000   0.0000   0.0000   0.0000
     0.0000   0.0000   0.0000   0.0000   0.0000   0.0000   0.0000   0.0000
     0.0000   0.0000   0.0000   0.0000   0.0000   0.0000   0.0000   0.0000
     0.0000   0.0000   0.0000   0.0000   0.0000   0.0000   0.0000   0.0000
     0.0000   0.0000   0.0000   0.0000   0.0000   0.0000   0.0000   0.0000
     0.0000   0.0000   0.0000   0.0000   0.0000   0.0000   0.0000   0.0000
     0.0000   0.0000   0.0000   0.0000   0.0000   0.0000   0.0000   0.0000
     0.0000   0.0000   0.0000   0.0000   0.0000   0.0000   0.0000   0.0000
     0.0000   0.0000   0.0000   0.0000   0.0000   0.0000   0.0000   0.0000
     0.0000   0.0000   0.0000   0.0000   0.0000   0.0000   0.0000   0.0000
     0.0000   0.0000   0.0000   0.0000   0.0000   0.0000   0.0000   0.0000
     0.0000   0.0000   0.0000   0.0000   0.0000   0.0000   0.0000   0.0000
     0.0000   0.0000   0.0000   0.0000   0.0000   0.0000   0.0000   0.0000
     0.0000   0.0000   0.0000   0.0000   0.0000   0.0000   0.0000   0.0000
     0.0000   0.0000   0.0000   0.0000   0.0000   0.0000   0.0000   0.0000
     0.0000   0.0000   0.0000   0.0000   0.0000   0.0000   0.0000   0.0000
     0.0000   0.0000   0.0000   0.0000   0.0000   0.0000   0.0000   0.0000
     0.0000   0.0000   0.0000   0.0000   0.0000   0.0000   0.0000   0.0000
     0.0000   0.0000   0.0000   0.0000   0.0000   0.0000   0.0000   0.0000
     0.0000   0.0000   0.0000   0.0000   0.0000   0.0000   0.0000   0.0000
     0.0000   0.0000   0.0000   0.0000   0.0000   0.0000   0.0000   0.0000
     0.0000   0.0000   0.0000   0.0000   0.0000   0.0000   0.0000   0.0000
     0.0000   0.0000   0.0000   0.0000   0.0000   0.0000   0.0000   0.0000
     0.0000   0.0000   0.0000   0.0000   0.0000   0.0000   0.0000   0.0000
     0.0000   0.0000   0.0000   0.0000   0.0000   0.0000   0.0000   0.0000
     0.0000   0.0000   0.0000   0.0000   0.0000   0.0000   0.0000   0.0000

     highest occupied, lowest unoccupied level (ev):    -0.5628   -0.4744

     Writing all to output data dir ./kpoints_60-nbnds_600.save/
 
     init_run     :      0.20s CPU      0.34s WALL (       1 calls)
     electrons    :   2654.16s CPU   2731.89s WALL (       1 calls)

     Called by init_run:
     wfcinit      :      0.00s CPU      0.00s WALL (       1 calls)
                                        0.00s GPU  (       1 calls)
     wfcinit:wfcr :    146.23s CPU    149.12s WALL (     331 calls)
                                      149.12s GPU  (     331 calls)
     potinit      :      0.02s CPU      0.06s WALL (       1 calls)
     hinit0       :      0.02s CPU      0.05s WALL (       1 calls)

     Called by electrons:
     c_bands      :   2654.12s CPU   2731.80s WALL (       1 calls)
     v_of_rho     :      0.02s CPU      0.02s WALL (       1 calls)
     v_h          :      0.01s CPU      0.00s WALL (       1 calls)
     v_xc         :      0.01s CPU      0.02s WALL (       1 calls)

     Called by c_bands:
     init_us_2    :      0.09s CPU      0.13s WALL (     331 calls)
     init_us_2:gp :      0.09s CPU      0.12s WALL (     331 calls)
     cegterg      :   2474.45s CPU   2520.43s WALL (     713 calls)

     Called by sum_band:

     Called by *egterg:
     cdiaghg      :    264.50s CPU    265.82s WALL (   10690 calls)
                                      265.73s GPU  (   10690 calls)
     cegterg:over :     94.84s CPU    105.49s WALL (   10359 calls)
     cegterg:upda :     40.04s CPU     40.25s WALL (   10359 calls)
     cegterg:last :     25.52s CPU     25.69s WALL (    4816 calls)
     h_psi        :   2174.56s CPU   2209.61s WALL (   11403 calls)
                                     2209.20s GPU  (   11403 calls)
     g_psi        :      0.04s CPU      1.03s WALL (   10359 calls)
                                        0.94s GPU  (   10359 calls)

     Called by h_psi:
     h_psi:calbec :     10.18s CPU     10.75s WALL (   11403 calls)
                                       10.66s GPU  (   11403 calls)
     vloc_psi     :   2159.02s CPU   2193.49s WALL (   11403 calls)
                                     2193.40s GPU  (   11403 calls)
     add_vuspsi   :      2.16s CPU      3.75s WALL (   11403 calls)
                                        3.66s GPU  (   11403 calls)

     General routines
     calbec       :      9.95s CPU     10.31s WALL (   11403 calls)
     fft          :      0.00s CPU      0.03s WALL (      13 calls)
                                        0.03s GPU  (      13 calls)
     fftw         :   1043.23s CPU   1257.78s WALL (12729652 calls)
                                     1163.50s GPU  (12729652 calls)
     davcio       :      1.52s CPU     77.22s WALL (     662 calls)
 
     Parallel routines
 
     PWSCF        :  45m 7.83s CPU  48m29.40s WALL

 
   This run was terminated on:  12: 4:14  23Oct2025            

=------------------------------------------------------------------------------=
   JOB DONE.
=------------------------------------------------------------------------------=
